MODEL 1
REMARK VINA RESULT:    -5.321      0.000      0.000
REMARK INTER + INTRA:          -5.973
REMARK INTER:                  -5.943
REMARK INTRA:                  -0.031
REMARK UNBOUND:                -0.031
REMARK SMILES O=C(O)c1ccc(O)cc1
REMARK SMILES IDX 4 1 5 2 10 3 7 4 6 5 9 6 8 7 2 9 1 10 3 11
REMARK H PARENT 8 8 3 12
ROOT
ATOM      1  C   UNL     1       7.854  10.211   9.422  1.00  0.00     0.060 A 
ATOM      2  C   UNL     1       8.630   9.947  10.551  1.00  0.00     0.019 A 
ATOM      3  C   UNL     1       8.421  10.852   8.320  1.00  0.00     0.019 A 
ATOM      4  C   UNL     1      10.539  10.966   9.477  1.00  0.00     0.115 A 
ATOM      5  C   UNL     1       9.972  10.325  10.578  1.00  0.00     0.047 A 
ATOM      6  C   UNL     1       9.764  11.229   8.348  1.00  0.00     0.047 A 
ENDROOT
BRANCH   4   7
ATOM      7  O   UNL     1      11.849  11.335   9.504  1.00  0.00    -0.508 OA
ATOM      8  H   UNL     1      12.311  10.808  10.179  1.00  0.00     0.293 HD
ENDBRANCH   4   7
BRANCH   1   9
ATOM      9  C   UNL     1       6.454   9.818   9.394  1.00  0.00     0.335 C 
ATOM     10  O   UNL     1       5.492  10.590   9.445  1.00  0.00    -0.246 OA
BRANCH   9  11
ATOM     11  O   UNL     1       6.296   8.468   9.303  1.00  0.00    -0.478 OA
ATOM     12  H   UNL     1       5.807   8.106  10.073  1.00  0.00     0.297 HD
ENDBRANCH   9  11
ENDBRANCH   1   9
TORSDOF 3
ENDMDL
MODEL 2
REMARK VINA RESULT:    -5.317      0.063      1.529
REMARK INTER + INTRA:          -5.970
REMARK INTER:                  -5.939
REMARK INTRA:                  -0.030
REMARK UNBOUND:                -0.031
REMARK SMILES O=C(O)c1ccc(O)cc1
REMARK SMILES IDX 4 1 5 2 10 3 7 4 6 5 9 6 8 7 2 9 1 10 3 11
REMARK H PARENT 8 8 3 12
ROOT
ATOM      1  C   UNL     1       7.849  10.241   9.451  1.00  0.00     0.060 A 
ATOM      2  C   UNL     1       8.414  10.916   8.369  1.00  0.00     0.019 A 
ATOM      3  C   UNL     1       8.633   9.924  10.561  1.00  0.00     0.019 A 
ATOM      4  C   UNL     1      10.546  10.955   9.506  1.00  0.00     0.115 A 
ATOM      5  C   UNL     1       9.762  11.273   8.397  1.00  0.00     0.047 A 
ATOM      6  C   UNL     1       9.981  10.282  10.588  1.00  0.00     0.047 A 
ENDROOT
BRANCH   4   7
ATOM      7  O   UNL     1      11.861  11.304   9.531  1.00  0.00    -0.508 OA
ATOM      8  H   UNL     1      12.040  11.915   8.798  1.00  0.00     0.293 HD
ENDBRANCH   4   7
BRANCH   1   9
ATOM      9  C   UNL     1       6.444   9.868   9.422  1.00  0.00     0.335 C 
ATOM     10  O   UNL     1       5.493  10.649   9.534  1.00  0.00    -0.246 OA
BRANCH   9  11
ATOM     11  O   UNL     1       6.265   8.529   9.254  1.00  0.00    -0.478 OA
ATOM     12  H   UNL     1       7.107   8.074   9.036  1.00  0.00     0.297 HD
ENDBRANCH   9  11
ENDBRANCH   1   9
TORSDOF 3
ENDMDL
MODEL 3
REMARK VINA RESULT:    -5.158     15.563     16.696
REMARK INTER + INTRA:          -5.792
REMARK INTER:                  -5.757
REMARK INTRA:                  -0.035
REMARK UNBOUND:                -0.031
REMARK SMILES O=C(O)c1ccc(O)cc1
REMARK SMILES IDX 4 1 5 2 10 3 7 4 6 5 9 6 8 7 2 9 1 10 3 11
REMARK H PARENT 8 8 3 12
ROOT
ATOM      1  C   UNL     1      -3.433   3.294   0.172  1.00  0.00     0.060 A 
ATOM      2  C   UNL     1      -2.083   2.948   0.239  1.00  0.00     0.019 A 
ATOM      3  C   UNL     1      -4.317   2.843   1.152  1.00  0.00     0.019 A 
ATOM      4  C   UNL     1      -2.503   1.698   2.263  1.00  0.00     0.115 A 
ATOM      5  C   UNL     1      -1.619   2.150   1.284  1.00  0.00     0.047 A 
ATOM      6  C   UNL     1      -3.852   2.044   2.197  1.00  0.00     0.047 A 
ENDROOT
BRANCH   4   7
ATOM      7  O   UNL     1      -2.049   0.918   3.283  1.00  0.00    -0.508 OA
ATOM      8  H   UNL     1      -2.238   1.362   4.127  1.00  0.00     0.293 HD
ENDBRANCH   4   7
BRANCH   1   9
ATOM      9  C   UNL     1      -3.917   4.126  -0.918  1.00  0.00     0.335 C 
ATOM     10  O   UNL     1      -3.684   3.942  -2.117  1.00  0.00    -0.246 OA
BRANCH   9  11
ATOM     11  O   UNL     1      -4.679   5.165  -0.479  1.00  0.00    -0.478 OA
ATOM     12  H   UNL     1      -5.133   5.622  -1.219  1.00  0.00     0.297 HD
ENDBRANCH   9  11
ENDBRANCH   1   9
TORSDOF 3
ENDMDL
MODEL 4
REMARK VINA RESULT:    -5.120     15.565     16.753
REMARK INTER + INTRA:          -5.749
REMARK INTER:                  -5.715
REMARK INTRA:                  -0.034
REMARK UNBOUND:                -0.031
REMARK SMILES O=C(O)c1ccc(O)cc1
REMARK SMILES IDX 4 1 5 2 10 3 7 4 6 5 9 6 8 7 2 9 1 10 3 11
REMARK H PARENT 8 8 3 12
ROOT
ATOM      1  C   UNL     1      -3.610   3.218   0.264  1.00  0.00     0.060 A 
ATOM      2  C   UNL     1      -4.453   2.688   1.240  1.00  0.00     0.019 A 
ATOM      3  C   UNL     1      -2.239   2.969   0.316  1.00  0.00     0.019 A 
ATOM      4  C   UNL     1      -2.552   1.660   2.322  1.00  0.00     0.115 A 
ATOM      5  C   UNL     1      -3.924   1.909   2.270  1.00  0.00     0.047 A 
ATOM      6  C   UNL     1      -1.710   2.189   1.345  1.00  0.00     0.047 A 
ENDROOT
BRANCH   4   7
ATOM      7  O   UNL     1      -2.037   0.901   3.328  1.00  0.00    -0.508 OA
ATOM      8  H   UNL     1      -1.855   0.009   2.987  1.00  0.00     0.293 HD
ENDBRANCH   4   7
BRANCH   1   9
ATOM      9  C   UNL     1      -4.162   4.030  -0.809  1.00  0.00     0.335 C 
ATOM     10  O   UNL     1      -3.986   3.837  -2.016  1.00  0.00    -0.246 OA
BRANCH   9  11
ATOM     11  O   UNL     1      -4.920   5.061  -0.343  1.00  0.00    -0.478 OA
ATOM     12  H   UNL     1      -4.390   5.687   0.196  1.00  0.00     0.297 HD
ENDBRANCH   9  11
ENDBRANCH   1   9
TORSDOF 3
ENDMDL
MODEL 5
REMARK VINA RESULT:    -5.089      1.488      3.858
REMARK INTER + INTRA:          -5.715
REMARK INTER:                  -5.680
REMARK INTRA:                  -0.035
REMARK UNBOUND:                -0.031
REMARK SMILES O=C(O)c1ccc(O)cc1
REMARK SMILES IDX 4 1 5 2 10 3 7 4 6 5 9 6 8 7 2 9 1 10 3 11
REMARK H PARENT 8 8 3 12
ROOT
ATOM      1  C   UNL     1       9.733  10.359  10.134  1.00  0.00     0.060 A 
ATOM      2  C   UNL     1       8.531   9.702  10.398  1.00  0.00     0.019 A 
ATOM      3  C   UNL     1       9.863  11.141   8.986  1.00  0.00     0.019 A 
ATOM      4  C   UNL     1       7.590  10.608   8.364  1.00  0.00     0.115 A 
ATOM      5  C   UNL     1       7.460   9.827   9.512  1.00  0.00     0.047 A 
ATOM      6  C   UNL     1       8.792  11.265   8.101  1.00  0.00     0.047 A 
ENDROOT
BRANCH   4   7
ATOM      7  O   UNL     1       6.545  10.727   7.501  1.00  0.00    -0.508 OA
ATOM      8  H   UNL     1       6.390  11.670   7.322  1.00  0.00     0.293 HD
ENDBRANCH   4   7
BRANCH   1   9
ATOM      9  C   UNL     1      10.849  10.229  11.057  1.00  0.00     0.335 C 
ATOM     10  O   UNL     1      11.510  11.166  11.519  1.00  0.00    -0.246 OA
BRANCH   9  11
ATOM     11  O   UNL     1      11.109   8.932  11.378  1.00  0.00    -0.478 OA
ATOM     12  H   UNL     1      12.047   8.802  11.635  1.00  0.00     0.297 HD
ENDBRANCH   9  11
ENDBRANCH   1   9
TORSDOF 3
ENDMDL
MODEL 6
REMARK VINA RESULT:    -5.056      2.263      2.732
REMARK INTER + INTRA:          -5.678
REMARK INTER:                  -5.638
REMARK INTRA:                  -0.040
REMARK UNBOUND:                -0.031
REMARK SMILES O=C(O)c1ccc(O)cc1
REMARK SMILES IDX 4 1 5 2 10 3 7 4 6 5 9 6 8 7 2 9 1 10 3 11
REMARK H PARENT 8 8 3 12
ROOT
ATOM      1  C   UNL     1       7.229  10.837   9.816  1.00  0.00     0.060 A 
ATOM      2  C   UNL     1       8.023   9.690   9.853  1.00  0.00     0.019 A 
ATOM      3  C   UNL     1       7.288  11.760  10.860  1.00  0.00     0.019 A 
ATOM      4  C   UNL     1       8.932  10.389  11.981  1.00  0.00     0.115 A 
ATOM      5  C   UNL     1       8.873   9.467  10.936  1.00  0.00     0.047 A 
ATOM      6  C   UNL     1       8.139  11.536  11.942  1.00  0.00     0.047 A 
ENDROOT
BRANCH   4   7
ATOM      7  O   UNL     1       9.761  10.169  13.037  1.00  0.00    -0.508 OA
ATOM      8  H   UNL     1       9.225   9.992  13.828  1.00  0.00     0.293 HD
ENDBRANCH   4   7
BRANCH   1   9
ATOM      9  C   UNL     1       6.343  11.071   8.687  1.00  0.00     0.335 C 
ATOM     10  O   UNL     1       6.526  10.663   7.535  1.00  0.00    -0.246 OA
BRANCH   9  11
ATOM     11  O   UNL     1       5.249  11.806   9.030  1.00  0.00    -0.478 OA
ATOM     12  H   UNL     1       4.734  12.081   8.241  1.00  0.00     0.297 HD
ENDBRANCH   9  11
ENDBRANCH   1   9
TORSDOF 3
ENDMDL
MODEL 7
REMARK VINA RESULT:    -4.709     18.411     20.709
REMARK INTER + INTRA:          -5.290
REMARK INTER:                  -5.253
REMARK INTRA:                  -0.037
REMARK UNBOUND:                -0.031
REMARK SMILES O=C(O)c1ccc(O)cc1
REMARK SMILES IDX 4 1 5 2 10 3 7 4 6 5 9 6 8 7 2 9 1 10 3 11
REMARK H PARENT 8 8 3 12
ROOT
ATOM      1  C   UNL     1      -9.324   4.844   2.999  1.00  0.00     0.060 A 
ATOM      2  C   UNL     1      -8.874   5.107   1.705  1.00  0.00     0.019 A 
ATOM      3  C   UNL     1     -10.688   4.681   3.243  1.00  0.00     0.019 A 
ATOM      4  C   UNL     1     -11.152   5.047   0.901  1.00  0.00     0.115 A 
ATOM      5  C   UNL     1      -9.789   5.208   0.656  1.00  0.00     0.047 A 
ATOM      6  C   UNL     1     -11.602   4.783   2.194  1.00  0.00     0.047 A 
ENDROOT
BRANCH   4   7
ATOM      7  O   UNL     1     -12.044   5.147  -0.123  1.00  0.00    -0.508 OA
ATOM      8  H   UNL     1     -12.699   5.831   0.095  1.00  0.00     0.293 HD
ENDBRANCH   4   7
BRANCH   1   9
ATOM      9  C   UNL     1      -8.371   4.738   4.092  1.00  0.00     0.335 C 
ATOM     10  O   UNL     1      -8.411   3.900   4.999  1.00  0.00    -0.246 OA
BRANCH   9  11
ATOM     11  O   UNL     1      -7.392   5.682   4.020  1.00  0.00    -0.478 OA
ATOM     12  H   UNL     1      -6.816   5.550   3.238  1.00  0.00     0.297 HD
ENDBRANCH   9  11
ENDBRANCH   1   9
TORSDOF 3
ENDMDL
MODEL 8
REMARK VINA RESULT:    -4.669     16.046     16.921
REMARK INTER + INTRA:          -5.246
REMARK INTER:                  -5.204
REMARK INTRA:                  -0.041
REMARK UNBOUND:                -0.031
REMARK SMILES O=C(O)c1ccc(O)cc1
REMARK SMILES IDX 4 1 5 2 10 3 7 4 6 5 9 6 8 7 2 9 1 10 3 11
REMARK H PARENT 8 8 3 12
ROOT
ATOM      1  C   UNL     1      -3.866   2.876   1.331  1.00  0.00     0.060 A 
ATOM      2  C   UNL     1      -4.938   3.345   0.571  1.00  0.00     0.019 A 
ATOM      3  C   UNL     1      -2.565   2.981   0.841  1.00  0.00     0.019 A 
ATOM      4  C   UNL     1      -3.405   4.022  -1.171  1.00  0.00     0.115 A 
ATOM      5  C   UNL     1      -4.707   3.918  -0.680  1.00  0.00     0.047 A 
ATOM      6  C   UNL     1      -2.335   3.554  -0.410  1.00  0.00     0.047 A 
ENDROOT
BRANCH   4   7
ATOM      7  O   UNL     1      -3.182   4.580  -2.392  1.00  0.00    -0.508 OA
ATOM      8  H   UNL     1      -3.863   5.253  -2.560  1.00  0.00     0.293 HD
ENDBRANCH   4   7
BRANCH   1   9
ATOM      9  C   UNL     1      -4.107   2.279   2.635  1.00  0.00     0.335 C 
ATOM     10  O   UNL     1      -5.096   2.486   3.346  1.00  0.00    -0.246 OA
BRANCH   9  11
ATOM     11  O   UNL     1      -3.105   1.438   3.014  1.00  0.00    -0.478 OA
ATOM     12  H   UNL     1      -2.978   0.710   2.367  1.00  0.00     0.297 HD
ENDBRANCH   9  11
ENDBRANCH   1   9
TORSDOF 3
ENDMDL
MODEL 9
REMARK VINA RESULT:    -4.656     18.423     20.586
REMARK INTER + INTRA:          -5.232
REMARK INTER:                  -5.202
REMARK INTRA:                  -0.029
REMARK UNBOUND:                -0.031
REMARK SMILES O=C(O)c1ccc(O)cc1
REMARK SMILES IDX 4 1 5 2 10 3 7 4 6 5 9 6 8 7 2 9 1 10 3 11
REMARK H PARENT 8 8 3 12
ROOT
ATOM      1  C   UNL     1     -10.765   4.788   2.717  1.00  0.00     0.060 A 
ATOM      2  C   UNL     1      -9.733   5.035   1.811  1.00  0.00     0.019 A 
ATOM      3  C   UNL     1     -10.473   4.557   4.061  1.00  0.00     0.019 A 
ATOM      4  C   UNL     1      -8.117   4.818   3.595  1.00  0.00     0.115 A 
ATOM      5  C   UNL     1      -8.409   5.050   2.251  1.00  0.00     0.047 A 
ATOM      6  C   UNL     1      -9.149   4.572   4.500  1.00  0.00     0.047 A 
ENDROOT
BRANCH   4   7
ATOM      7  O   UNL     1      -6.825   4.831   4.022  1.00  0.00    -0.508 OA
ATOM      8  H   UNL     1      -6.812   4.970   4.984  1.00  0.00     0.293 HD
ENDBRANCH   4   7
BRANCH   1   9
ATOM      9  C   UNL     1     -12.145   4.772   2.259  1.00  0.00     0.335 C 
ATOM     10  O   UNL     1     -12.938   5.716   2.340  1.00  0.00    -0.246 OA
BRANCH   9  11
ATOM     11  O   UNL     1     -12.497   3.577   1.709  1.00  0.00    -0.478 OA
ATOM     12  H   UNL     1     -11.729   3.127   1.295  1.00  0.00     0.297 HD
ENDBRANCH   9  11
ENDBRANCH   1   9
TORSDOF 3
ENDMDL
