MODEL 1
REMARK VINA RESULT:    -6.101      0.000      0.000
REMARK INTER + INTRA:         -14.155
REMARK INTER:                 -12.163
REMARK INTRA:                  -1.992
REMARK UNBOUND:                -1.992
REMARK SMILES C#CCCCCCCCCCCC[C@H](O)C[C@H](O)COC(C)=O
REMARK SMILES IDX 11 1 12 2 13 3 14 4 15 5 16 7 17 8 18 9 19 11 20 12 21 13
REMARK SMILES IDX 23 14 22 15 10 16 9 17 8 18 7 19 6 20 5 21 4 22 3 23 2 24
REMARK SMILES IDX 1 25
REMARK H PARENT 15 6 18 10
ROOT
ATOM      1  C   UNL     1      29.315  30.680  88.316  1.00  0.00     0.000 C 
ENDROOT
BRANCH   1   2
ATOM      2  C   UNL     1      28.440  29.503  87.868  1.00  0.00     0.003 C 
BRANCH   2   3
ATOM      3  C   UNL     1      27.479  29.017  88.959  1.00  0.00     0.032 C 
BRANCH   3   4
ATOM      4  C   UNL     1      25.994  29.262  88.649  1.00  0.00     0.117 C 
BRANCH   4   5
ATOM      5  O   UNL     1      25.224  28.095  88.937  1.00  0.00    -0.393 OA
ATOM      6  H   UNL     1      25.373  27.871  89.872  1.00  0.00     0.210 HD
ENDBRANCH   4   5
BRANCH   4   7
ATOM      7  C   UNL     1      25.746  29.686  87.194  1.00  0.00     0.067 C 
BRANCH   7   8
ATOM      8  C   UNL     1      25.115  31.087  87.099  1.00  0.00     0.154 C 
BRANCH   8   9
ATOM      9  O   UNL     1      25.683  31.816  86.008  1.00  0.00    -0.389 OA
ATOM     10  H   UNL     1      26.337  32.435  86.396  1.00  0.00     0.211 HD
ENDBRANCH   8   9
BRANCH   8  11
ATOM     11  C   UNL     1      25.323  31.902  88.381  1.00  0.00     0.264 C 
BRANCH  11  12
ATOM     12  O   UNL     1      26.097  33.081  88.107  1.00  0.00    -0.463 OA
BRANCH  12  13
ATOM     13  C   UNL     1      25.463  34.274  88.256  1.00  0.00     0.302 C 
ATOM     14  O   UNL     1      24.254  34.452  88.232  1.00  0.00    -0.253 OA
ATOM     15  C   UNL     1      26.471  35.365  88.437  1.00  0.00     0.139 C 
ENDBRANCH  12  13
ENDBRANCH  11  12
ENDBRANCH   8  11
ENDBRANCH   7   8
ENDBRANCH   4   7
ENDBRANCH   3   4
ENDBRANCH   2   3
ENDBRANCH   1   2
BRANCH   1  16
ATOM     16  C   UNL     1      30.728  30.639  87.726  1.00  0.00     0.000 C 
BRANCH  16  17
ATOM     17  C   UNL     1      31.189  29.200  87.484  1.00  0.00     0.000 C 
BRANCH  17  18
ATOM     18  C   UNL     1      31.729  28.513  88.742  1.00  0.00     0.000 C 
BRANCH  18  19
ATOM     19  C   UNL     1      31.129  27.142  89.063  1.00  0.00     0.000 C 
BRANCH  19  20
ATOM     20  C   UNL     1      31.269  26.085  87.964  1.00  0.00     0.000 C 
BRANCH  20  21
ATOM     21  C   UNL     1      29.972  25.690  87.252  1.00  0.00     0.001 C 
BRANCH  21  22
ATOM     22  C   UNL     1      28.768  25.594  88.197  1.00  0.00     0.013 C 
BRANCH  22  23
ATOM     23  C   UNL     1      27.429  25.662  87.460  1.00  0.00     0.089 C 
ATOM     24  C   UNL     1      27.152  24.440  86.693  1.00  0.00    -0.107 C 
ATOM     25  C   UNL     1      26.913  23.440  86.068  1.00  0.00     0.004 C 
ENDBRANCH  22  23
ENDBRANCH  21  22
ENDBRANCH  20  21
ENDBRANCH  19  20
ENDBRANCH  18  19
ENDBRANCH  17  18
ENDBRANCH  16  17
ENDBRANCH   1  16
TORSDOF 18
ENDMDL
MODEL 2
REMARK VINA RESULT:    -5.736      2.048      2.801
REMARK INTER + INTRA:         -13.428
REMARK INTER:                 -10.748
REMARK INTRA:                  -2.680
REMARK UNBOUND:                -1.992
REMARK SMILES C#CCCCCCCCCCCC[C@H](O)C[C@H](O)COC(C)=O
REMARK SMILES IDX 11 1 12 2 13 3 14 4 15 5 16 7 17 8 18 9 19 11 20 12 21 13
REMARK SMILES IDX 23 14 22 15 10 16 9 17 8 18 7 19 6 20 5 21 4 22 3 23 2 24
REMARK SMILES IDX 1 25
REMARK H PARENT 15 6 18 10
ROOT
ATOM      1  C   UNL     1      29.979  28.548  89.067  1.00  0.00     0.000 C 
ENDROOT
BRANCH   1   2
ATOM      2  C   UNL     1      28.596  28.036  88.650  1.00  0.00     0.003 C 
BRANCH   2   3
ATOM      3  C   UNL     1      27.599  27.972  89.814  1.00  0.00     0.032 C 
BRANCH   3   4
ATOM      4  C   UNL     1      26.327  28.806  89.602  1.00  0.00     0.117 C 
BRANCH   4   5
ATOM      5  O   UNL     1      25.286  27.999  89.050  1.00  0.00    -0.393 OA
ATOM      6  H   UNL     1      24.952  27.426  89.762  1.00  0.00     0.210 HD
ENDBRANCH   4   5
BRANCH   4   7
ATOM      7  C   UNL     1      26.552  30.029  88.700  1.00  0.00     0.067 C 
BRANCH   7   8
ATOM      8  C   UNL     1      25.652  29.999  87.451  1.00  0.00     0.154 C 
BRANCH   8   9
ATOM      9  O   UNL     1      26.205  29.129  86.461  1.00  0.00    -0.389 OA
ATOM     10  H   UNL     1      27.143  28.983  86.709  1.00  0.00     0.211 HD
ENDBRANCH   8   9
BRANCH   8  11
ATOM     11  C   UNL     1      25.484  31.390  86.828  1.00  0.00     0.264 C 
BRANCH  11  12
ATOM     12  O   UNL     1      24.918  32.304  87.781  1.00  0.00    -0.463 OA
BRANCH  12  13
ATOM     13  C   UNL     1      25.430  33.562  87.798  1.00  0.00     0.302 C 
ATOM     14  O   UNL     1      24.792  34.595  87.941  1.00  0.00    -0.253 OA
ATOM     15  C   UNL     1      26.912  33.510  87.592  1.00  0.00     0.139 C 
ENDBRANCH  12  13
ENDBRANCH  11  12
ENDBRANCH   8  11
ENDBRANCH   7   8
ENDBRANCH   4   7
ENDBRANCH   3   4
ENDBRANCH   2   3
ENDBRANCH   1   2
BRANCH   1  16
ATOM     16  C   UNL     1      30.623  29.464  88.022  1.00  0.00     0.000 C 
BRANCH  16  17
ATOM     17  C   UNL     1      32.120  29.179  87.878  1.00  0.00     0.000 C 
BRANCH  17  18
ATOM     18  C   UNL     1      32.712  28.420  89.070  1.00  0.00     0.000 C 
BRANCH  18  19
ATOM     19  C   UNL     1      33.403  27.094  88.737  1.00  0.00     0.000 C 
BRANCH  19  20
ATOM     20  C   UNL     1      32.803  26.311  87.566  1.00  0.00     0.000 C 
BRANCH  20  21
ATOM     21  C   UNL     1      31.604  25.421  87.907  1.00  0.00     0.001 C 
BRANCH  21  22
ATOM     22  C   UNL     1      31.833  24.546  89.146  1.00  0.00     0.013 C 
BRANCH  22  23
ATOM     23  C   UNL     1      30.716  24.684  90.183  1.00  0.00     0.089 C 
ATOM     24  C   UNL     1      31.030  25.683  91.213  1.00  0.00    -0.107 C 
ATOM     25  C   UNL     1      31.277  26.505  92.056  1.00  0.00     0.004 C 
ENDBRANCH  22  23
ENDBRANCH  21  22
ENDBRANCH  20  21
ENDBRANCH  19  20
ENDBRANCH  18  19
ENDBRANCH  17  18
ENDBRANCH  16  17
ENDBRANCH   1  16
TORSDOF 18
ENDMDL
MODEL 3
REMARK VINA RESULT:    -5.656      2.487      5.402
REMARK INTER + INTRA:         -13.269
REMARK INTER:                 -11.013
REMARK INTRA:                  -2.256
REMARK UNBOUND:                -1.992
REMARK SMILES C#CCCCCCCCCCCC[C@H](O)C[C@H](O)COC(C)=O
REMARK SMILES IDX 11 1 12 2 13 3 14 4 15 5 16 7 17 8 18 9 19 11 20 12 21 13
REMARK SMILES IDX 23 14 22 15 10 16 9 17 8 18 7 19 6 20 5 21 4 22 3 23 2 24
REMARK SMILES IDX 1 25
REMARK H PARENT 15 6 18 10
ROOT
ATOM      1  C   UNL     1      26.691  31.332  88.362  1.00  0.00     0.000 C 
ENDROOT
BRANCH   1   2
ATOM      2  C   UNL     1      26.580  31.066  89.868  1.00  0.00     0.003 C 
BRANCH   2   3
ATOM      3  C   UNL     1      26.522  29.573  90.215  1.00  0.00     0.032 C 
BRANCH   3   4
ATOM      4  C   UNL     1      26.411  28.646  88.995  1.00  0.00     0.117 C 
BRANCH   4   5
ATOM      5  O   UNL     1      25.155  27.966  88.997  1.00  0.00    -0.393 OA
ATOM      6  H   UNL     1      24.500  28.563  88.595  1.00  0.00     0.210 HD
ENDBRANCH   4   5
BRANCH   4   7
ATOM      7  C   UNL     1      27.545  27.614  88.918  1.00  0.00     0.067 C 
BRANCH   7   8
ATOM      8  C   UNL     1      27.532  26.837  87.590  1.00  0.00     0.154 C 
BRANCH   8   9
ATOM      9  O   UNL     1      26.687  27.490  86.640  1.00  0.00    -0.389 OA
ATOM     10  H   UNL     1      27.137  27.421  85.771  1.00  0.00     0.211 HD
ENDBRANCH   8   9
BRANCH   8  11
ATOM     11  C   UNL     1      27.032  25.398  87.767  1.00  0.00     0.264 C 
BRANCH  11  12
ATOM     12  O   UNL     1      27.548  24.554  86.725  1.00  0.00    -0.463 OA
BRANCH  12  13
ATOM     13  C   UNL     1      26.920  24.617  85.522  1.00  0.00     0.302 C 
ATOM     14  O   UNL     1      25.753  24.932  85.338  1.00  0.00    -0.253 OA
ATOM     15  C   UNL     1      27.867  24.220  84.433  1.00  0.00     0.139 C 
ENDBRANCH  12  13
ENDBRANCH  11  12
ENDBRANCH   8  11
ENDBRANCH   7   8
ENDBRANCH   4   7
ENDBRANCH   3   4
ENDBRANCH   2   3
ENDBRANCH   1   2
BRANCH   1  16
ATOM     16  C   UNL     1      27.897  32.200  87.992  1.00  0.00     0.000 C 
BRANCH  16  17
ATOM     17  C   UNL     1      29.190  31.643  88.591  1.00  0.00     0.000 C 
BRANCH  17  18
ATOM     18  C   UNL     1      29.709  30.396  87.867  1.00  0.00     0.000 C 
BRANCH  18  19
ATOM     19  C   UNL     1      31.209  30.379  87.562  1.00  0.00     0.000 C 
BRANCH  19  20
ATOM     20  C   UNL     1      32.022  29.316  88.306  1.00  0.00     0.000 C 
BRANCH  20  21
ATOM     21  C   UNL     1      31.206  28.259  89.056  1.00  0.00     0.001 C 
BRANCH  21  22
ATOM     22  C   UNL     1      31.452  26.833  88.549  1.00  0.00     0.013 C 
BRANCH  22  23
ATOM     23  C   UNL     1      31.433  26.735  87.022  1.00  0.00     0.089 C 
ATOM     24  C   UNL     1      31.239  25.356  86.554  1.00  0.00    -0.107 C 
ATOM     25  C   UNL     1      31.073  24.231  86.161  1.00  0.00     0.004 C 
ENDBRANCH  22  23
ENDBRANCH  21  22
ENDBRANCH  20  21
ENDBRANCH  19  20
ENDBRANCH  18  19
ENDBRANCH  17  18
ENDBRANCH  16  17
ENDBRANCH   1  16
TORSDOF 18
ENDMDL
MODEL 4
REMARK VINA RESULT:    -5.643      1.543      2.276
REMARK INTER + INTRA:         -13.243
REMARK INTER:                 -10.856
REMARK INTRA:                  -2.387
REMARK UNBOUND:                -1.992
REMARK SMILES C#CCCCCCCCCCCC[C@H](O)C[C@H](O)COC(C)=O
REMARK SMILES IDX 11 1 12 2 13 3 14 4 15 5 16 7 17 8 18 9 19 11 20 12 21 13
REMARK SMILES IDX 23 14 22 15 10 16 9 17 8 18 7 19 6 20 5 21 4 22 3 23 2 24
REMARK SMILES IDX 1 25
REMARK H PARENT 15 6 18 10
ROOT
ATOM      1  C   UNL     1      30.041  27.943  88.312  1.00  0.00     0.000 C 
ENDROOT
BRANCH   1   2
ATOM      2  C   UNL     1      28.905  28.822  88.848  1.00  0.00     0.003 C 
BRANCH   2   3
ATOM      3  C   UNL     1      27.748  28.013  89.448  1.00  0.00     0.032 C 
BRANCH   3   4
ATOM      4  C   UNL     1      26.409  28.765  89.492  1.00  0.00     0.117 C 
BRANCH   4   5
ATOM      5  O   UNL     1      25.368  27.963  88.931  1.00  0.00    -0.393 OA
ATOM      6  H   UNL     1      24.571  28.100  89.473  1.00  0.00     0.210 HD
ENDBRANCH   4   5
BRANCH   4   7
ATOM      7  C   UNL     1      26.454  30.117  88.767  1.00  0.00     0.067 C 
BRANCH   7   8
ATOM      8  C   UNL     1      25.691  30.082  87.430  1.00  0.00     0.154 C 
BRANCH   8   9
ATOM      9  O   UNL     1      26.397  29.285  86.476  1.00  0.00    -0.389 OA
ATOM     10  H   UNL     1      25.719  28.881  85.892  1.00  0.00     0.211 HD
ENDBRANCH   8   9
BRANCH   8  11
ATOM     11  C   UNL     1      25.500  31.483  86.837  1.00  0.00     0.264 C 
BRANCH  11  12
ATOM     12  O   UNL     1      25.021  32.393  87.841  1.00  0.00    -0.463 OA
BRANCH  12  13
ATOM     13  C   UNL     1      25.510  33.660  87.798  1.00  0.00     0.302 C 
ATOM     14  O   UNL     1      24.847  34.686  87.837  1.00  0.00    -0.253 OA
ATOM     15  C   UNL     1      27.001  33.625  87.673  1.00  0.00     0.139 C 
ENDBRANCH  12  13
ENDBRANCH  11  12
ENDBRANCH   8  11
ENDBRANCH   7   8
ENDBRANCH   4   7
ENDBRANCH   3   4
ENDBRANCH   2   3
ENDBRANCH   1   2
BRANCH   1  16
ATOM     16  C   UNL     1      31.332  28.062  89.128  1.00  0.00     0.000 C 
BRANCH  16  17
ATOM     17  C   UNL     1      31.149  27.511  90.544  1.00  0.00     0.000 C 
BRANCH  17  18
ATOM     18  C   UNL     1      31.974  26.249  90.816  1.00  0.00     0.000 C 
BRANCH  18  19
ATOM     19  C   UNL     1      31.489  24.973  90.124  1.00  0.00     0.000 C 
BRANCH  19  20
ATOM     20  C   UNL     1      32.541  24.227  89.300  1.00  0.00     0.000 C 
BRANCH  20  21
ATOM     21  C   UNL     1      32.117  23.832  87.882  1.00  0.00     0.001 C 
BRANCH  21  22
ATOM     22  C   UNL     1      31.813  25.037  86.984  1.00  0.00     0.013 C 
BRANCH  22  23
ATOM     23  C   UNL     1      30.490  24.894  86.227  1.00  0.00     0.089 C 
ATOM     24  C   UNL     1      29.361  24.613  87.125  1.00  0.00    -0.107 C 
ATOM     25  C   UNL     1      28.430  24.391  87.853  1.00  0.00     0.004 C 
ENDBRANCH  22  23
ENDBRANCH  21  22
ENDBRANCH  20  21
ENDBRANCH  19  20
ENDBRANCH  18  19
ENDBRANCH  17  18
ENDBRANCH  16  17
ENDBRANCH   1  16
TORSDOF 18
ENDMDL
MODEL 5
REMARK VINA RESULT:    -5.565      2.926      8.439
REMARK INTER + INTRA:         -13.087
REMARK INTER:                 -11.302
REMARK INTRA:                  -1.784
REMARK UNBOUND:                -1.992
REMARK SMILES C#CCCCCCCCCCCC[C@H](O)C[C@H](O)COC(C)=O
REMARK SMILES IDX 11 1 12 2 13 3 14 4 15 5 16 7 17 8 18 9 19 11 20 12 21 13
REMARK SMILES IDX 23 14 22 15 10 16 9 17 8 18 7 19 6 20 5 21 4 22 3 23 2 24
REMARK SMILES IDX 1 25
REMARK H PARENT 15 6 18 10
ROOT
ATOM      1  C   UNL     1      26.437  31.702  90.460  1.00  0.00     0.000 C 
ENDROOT
BRANCH   1   2
ATOM      2  C   UNL     1      26.365  30.192  90.201  1.00  0.00     0.003 C 
BRANCH   2   3
ATOM      3  C   UNL     1      26.771  29.805  88.773  1.00  0.00     0.032 C 
BRANCH   3   4
ATOM      4  C   UNL     1      26.381  28.374  88.372  1.00  0.00     0.117 C 
BRANCH   4   5
ATOM      5  O   UNL     1      25.241  27.941  89.114  1.00  0.00    -0.393 OA
ATOM      6  H   UNL     1      24.455  28.337  88.699  1.00  0.00     0.210 HD
ENDBRANCH   4   5
BRANCH   4   7
ATOM      7  C   UNL     1      27.522  27.364  88.562  1.00  0.00     0.067 C 
BRANCH   7   8
ATOM      8  C   UNL     1      27.398  26.164  87.605  1.00  0.00     0.154 C 
BRANCH   8   9
ATOM      9  O   UNL     1      26.316  25.320  88.005  1.00  0.00    -0.389 OA
ATOM     10  H   UNL     1      25.792  25.134  87.196  1.00  0.00     0.211 HD
ENDBRANCH   8   9
BRANCH   8  11
ATOM     11  C   UNL     1      28.677  25.320  87.567  1.00  0.00     0.264 C 
BRANCH  11  12
ATOM     12  O   UNL     1      28.842  24.714  86.275  1.00  0.00    -0.463 OA
BRANCH  12  13
ATOM     13  C   UNL     1      30.111  24.638  85.795  1.00  0.00     0.302 C 
ATOM     14  O   UNL     1      30.499  23.893  84.907  1.00  0.00    -0.253 OA
ATOM     15  C   UNL     1      30.991  25.599  86.533  1.00  0.00     0.139 C 
ENDBRANCH  12  13
ENDBRANCH  11  12
ENDBRANCH   8  11
ENDBRANCH   7   8
ENDBRANCH   4   7
ENDBRANCH   3   4
ENDBRANCH   2   3
ENDBRANCH   1   2
BRANCH   1  16
ATOM     16  C   UNL     1      26.541  32.530  89.176  1.00  0.00     0.000 C 
BRANCH  16  17
ATOM     17  C   UNL     1      25.337  33.461  89.014  1.00  0.00     0.000 C 
BRANCH  17  18
ATOM     18  C   UNL     1      25.585  34.609  88.031  1.00  0.00     0.000 C 
BRANCH  18  19
ATOM     19  C   UNL     1      26.397  34.254  86.782  1.00  0.00     0.000 C 
BRANCH  19  20
ATOM     20  C   UNL     1      27.739  34.977  86.638  1.00  0.00     0.000 C 
BRANCH  20  21
ATOM     21  C   UNL     1      28.578  35.080  87.915  1.00  0.00     0.001 C 
BRANCH  21  22
ATOM     22  C   UNL     1      28.763  36.521  88.403  1.00  0.00     0.013 C 
BRANCH  22  23
ATOM     23  C   UNL     1      29.062  36.606  89.902  1.00  0.00     0.089 C 
ATOM     24  C   UNL     1      28.005  35.994  90.718  1.00  0.00    -0.107 C 
ATOM     25  C   UNL     1      27.147  35.489  91.393  1.00  0.00     0.004 C 
ENDBRANCH  22  23
ENDBRANCH  21  22
ENDBRANCH  20  21
ENDBRANCH  19  20
ENDBRANCH  18  19
ENDBRANCH  17  18
ENDBRANCH  16  17
ENDBRANCH   1  16
TORSDOF 18
ENDMDL
MODEL 6
REMARK VINA RESULT:    -5.543      2.062      5.287
REMARK INTER + INTRA:         -13.043
REMARK INTER:                 -10.945
REMARK INTRA:                  -2.098
REMARK UNBOUND:                -1.992
REMARK SMILES C#CCCCCCCCCCCC[C@H](O)C[C@H](O)COC(C)=O
REMARK SMILES IDX 11 1 12 2 13 3 14 4 15 5 16 7 17 8 18 9 19 11 20 12 21 13
REMARK SMILES IDX 23 14 22 15 10 16 9 17 8 18 7 19 6 20 5 21 4 22 3 23 2 24
REMARK SMILES IDX 1 25
REMARK H PARENT 15 6 18 10
ROOT
ATOM      1  C   UNL     1      29.827  29.740  87.934  1.00  0.00     0.000 C 
ENDROOT
BRANCH   1   2
ATOM      2  C   UNL     1      29.625  31.254  88.077  1.00  0.00     0.003 C 
BRANCH   2   3
ATOM      3  C   UNL     1      28.163  31.648  88.317  1.00  0.00     0.032 C 
BRANCH   3   4
ATOM      4  C   UNL     1      27.141  30.604  87.839  1.00  0.00     0.117 C 
BRANCH   4   5
ATOM      5  O   UNL     1      26.408  31.101  86.718  1.00  0.00    -0.393 OA
ATOM      6  H   UNL     1      26.190  30.339  86.153  1.00  0.00     0.210 HD
ENDBRANCH   4   5
BRANCH   4   7
ATOM      7  C   UNL     1      26.158  30.178  88.938  1.00  0.00     0.067 C 
BRANCH   7   8
ATOM      8  C   UNL     1      26.046  28.646  89.052  1.00  0.00     0.154 C 
BRANCH   8   9
ATOM      9  O   UNL     1      26.554  28.202  90.312  1.00  0.00    -0.389 OA
ATOM     10  H   UNL     1      25.811  28.262  90.950  1.00  0.00     0.211 HD
ENDBRANCH   8   9
BRANCH   8  11
ATOM     11  C   UNL     1      26.821  27.927  87.941  1.00  0.00     0.264 C 
BRANCH  11  12
ATOM     12  O   UNL     1      27.329  26.670  88.416  1.00  0.00    -0.463 OA
BRANCH  12  13
ATOM     13  C   UNL     1      27.182  25.602  87.589  1.00  0.00     0.302 C 
ATOM     14  O   UNL     1      26.158  24.955  87.428  1.00  0.00    -0.253 OA
ATOM     15  C   UNL     1      28.480  25.308  86.904  1.00  0.00     0.139 C 
ENDBRANCH  12  13
ENDBRANCH  11  12
ENDBRANCH   8  11
ENDBRANCH   7   8
ENDBRANCH   4   7
ENDBRANCH   3   4
ENDBRANCH   2   3
ENDBRANCH   1   2
BRANCH   1  16
ATOM     16  C   UNL     1      31.277  29.353  87.625  1.00  0.00     0.000 C 
BRANCH  16  17
ATOM     17  C   UNL     1      32.164  30.590  87.471  1.00  0.00     0.000 C 
BRANCH  17  18
ATOM     18  C   UNL     1      33.662  30.278  87.548  1.00  0.00     0.000 C 
BRANCH  18  19
ATOM     19  C   UNL     1      34.035  28.793  87.522  1.00  0.00     0.000 C 
BRANCH  19  20
ATOM     20  C   UNL     1      34.611  28.233  88.825  1.00  0.00     0.000 C 
BRANCH  20  21
ATOM     21  C   UNL     1      34.045  28.835  90.114  1.00  0.00     0.001 C 
BRANCH  21  22
ATOM     22  C   UNL     1      33.539  27.779  91.104  1.00  0.00     0.013 C 
BRANCH  22  23
ATOM     23  C   UNL     1      32.015  27.644  91.100  1.00  0.00     0.089 C 
ATOM     24  C   UNL     1      31.542  26.691  90.087  1.00  0.00    -0.107 C 
ATOM     25  C   UNL     1      31.146  25.907  89.265  1.00  0.00     0.004 C 
ENDBRANCH  22  23
ENDBRANCH  21  22
ENDBRANCH  20  21
ENDBRANCH  19  20
ENDBRANCH  18  19
ENDBRANCH  17  18
ENDBRANCH  16  17
ENDBRANCH   1  16
TORSDOF 18
ENDMDL
MODEL 7
REMARK VINA RESULT:    -5.521      2.883      7.989
REMARK INTER + INTRA:         -12.999
REMARK INTER:                 -11.001
REMARK INTRA:                  -1.998
REMARK UNBOUND:                -1.992
REMARK SMILES C#CCCCCCCCCCCC[C@H](O)C[C@H](O)COC(C)=O
REMARK SMILES IDX 11 1 12 2 13 3 14 4 15 5 16 7 17 8 18 9 19 11 20 12 21 13
REMARK SMILES IDX 23 14 22 15 10 16 9 17 8 18 7 19 6 20 5 21 4 22 3 23 2 24
REMARK SMILES IDX 1 25
REMARK H PARENT 15 6 18 10
ROOT
ATOM      1  C   UNL     1      26.961  33.836  91.653  1.00  0.00     0.000 C 
ENDROOT
BRANCH   1   2
ATOM      2  C   UNL     1      26.334  32.450  91.463  1.00  0.00     0.003 C 
BRANCH   2   3
ATOM      3  C   UNL     1      26.429  31.937  90.021  1.00  0.00     0.032 C 
BRANCH   3   4
ATOM      4  C   UNL     1      26.052  30.457  89.852  1.00  0.00     0.117 C 
BRANCH   4   5
ATOM      5  O   UNL     1      26.084  29.786  91.112  1.00  0.00    -0.393 OA
ATOM      6  H   UNL     1      25.448  29.050  91.067  1.00  0.00     0.210 HD
ENDBRANCH   4   5
BRANCH   4   7
ATOM      7  C   UNL     1      26.960  29.715  88.860  1.00  0.00     0.067 C 
BRANCH   7   8
ATOM      8  C   UNL     1      26.278  28.465  88.276  1.00  0.00     0.154 C 
BRANCH   8   9
ATOM      9  O   UNL     1      25.168  28.078  89.089  1.00  0.00    -0.389 OA
ATOM     10  H   UNL     1      24.408  28.631  88.807  1.00  0.00     0.211 HD
ENDBRANCH   8   9
BRANCH   8  11
ATOM     11  C   UNL     1      27.239  27.275  88.178  1.00  0.00     0.264 C 
BRANCH  11  12
ATOM     12  O   UNL     1      26.588  26.151  87.565  1.00  0.00    -0.463 OA
BRANCH  12  13
ATOM     13  C   UNL     1      27.263  24.972  87.580  1.00  0.00     0.302 C 
ATOM     14  O   UNL     1      28.131  24.652  88.378  1.00  0.00    -0.253 OA
ATOM     15  C   UNL     1      26.802  24.108  86.447  1.00  0.00     0.139 C 
ENDBRANCH  12  13
ENDBRANCH  11  12
ENDBRANCH   8  11
ENDBRANCH   7   8
ENDBRANCH   4   7
ENDBRANCH   3   4
ENDBRANCH   2   3
ENDBRANCH   1   2
BRANCH   1  16
ATOM     16  C   UNL     1      25.965  34.982  91.447  1.00  0.00     0.000 C 
BRANCH  16  17
ATOM     17  C   UNL     1      26.448  36.268  92.121  1.00  0.00     0.000 C 
BRANCH  17  18
ATOM     18  C   UNL     1      27.953  36.277  92.407  1.00  0.00     0.000 C 
BRANCH  18  19
ATOM     19  C   UNL     1      28.793  37.202  91.522  1.00  0.00     0.000 C 
BRANCH  19  20
ATOM     20  C   UNL     1      28.388  37.254  90.047  1.00  0.00     0.000 C 
BRANCH  20  21
ATOM     21  C   UNL     1      28.905  36.106  89.175  1.00  0.00     0.001 C 
BRANCH  21  22
ATOM     22  C   UNL     1      27.798  35.404  88.379  1.00  0.00     0.013 C 
BRANCH  22  23
ATOM     23  C   UNL     1      28.346  34.460  87.306  1.00  0.00     0.089 C 
ATOM     24  C   UNL     1      29.004  33.281  87.884  1.00  0.00    -0.107 C 
ATOM     25  C   UNL     1      29.538  32.308  88.348  1.00  0.00     0.004 C 
ENDBRANCH  22  23
ENDBRANCH  21  22
ENDBRANCH  20  21
ENDBRANCH  19  20
ENDBRANCH  18  19
ENDBRANCH  17  18
ENDBRANCH  16  17
ENDBRANCH   1  16
TORSDOF 18
ENDMDL
MODEL 8
REMARK VINA RESULT:    -5.411      1.625      2.535
REMARK INTER + INTRA:         -12.780
REMARK INTER:                 -10.544
REMARK INTRA:                  -2.237
REMARK UNBOUND:                -1.992
REMARK SMILES C#CCCCCCCCCCCC[C@H](O)C[C@H](O)COC(C)=O
REMARK SMILES IDX 11 1 12 2 13 3 14 4 15 5 16 7 17 8 18 9 19 11 20 12 21 13
REMARK SMILES IDX 23 14 22 15 10 16 9 17 8 18 7 19 6 20 5 21 4 22 3 23 2 24
REMARK SMILES IDX 1 25
REMARK H PARENT 15 6 18 10
ROOT
ATOM      1  C   UNL     1      29.282  29.325  88.375  1.00  0.00     0.000 C 
ENDROOT
BRANCH   1   2
ATOM      2  C   UNL     1      27.967  30.090  88.182  1.00  0.00     0.003 C 
BRANCH   2   3
ATOM      3  C   UNL     1      27.062  30.057  89.419  1.00  0.00     0.032 C 
BRANCH   3   4
ATOM      4  C   UNL     1      26.109  31.256  89.536  1.00  0.00     0.117 C 
BRANCH   4   5
ATOM      5  O   UNL     1      25.313  31.378  88.357  1.00  0.00    -0.393 OA
ATOM      6  H   UNL     1      24.444  31.725  88.626  1.00  0.00     0.210 HD
ENDBRANCH   4   5
BRANCH   4   7
ATOM      7  C   UNL     1      26.839  32.582  89.794  1.00  0.00     0.067 C 
BRANCH   7   8
ATOM      8  C   UNL     1      25.859  33.737  90.071  1.00  0.00     0.154 C 
BRANCH   8   9
ATOM      9  O   UNL     1      24.518  33.247  90.137  1.00  0.00    -0.389 OA
ATOM     10  H   UNL     1      23.978  33.963  90.536  1.00  0.00     0.211 HD
ENDBRANCH   8   9
BRANCH   8  11
ATOM     11  C   UNL     1      25.922  34.820  88.987  1.00  0.00     0.264 C 
BRANCH  11  12
ATOM     12  O   UNL     1      25.258  34.374  87.793  1.00  0.00    -0.463 OA
BRANCH  12  13
ATOM     13  C   UNL     1      26.054  33.985  86.762  1.00  0.00     0.302 C 
ATOM     14  O   UNL     1      25.891  32.997  86.062  1.00  0.00    -0.253 OA
ATOM     15  C   UNL     1      27.194  34.944  86.612  1.00  0.00     0.139 C 
ENDBRANCH  12  13
ENDBRANCH  11  12
ENDBRANCH   8  11
ENDBRANCH   7   8
ENDBRANCH   4   7
ENDBRANCH   3   4
ENDBRANCH   2   3
ENDBRANCH   1   2
BRANCH   1  16
ATOM     16  C   UNL     1      29.146  28.123  89.314  1.00  0.00     0.000 C 
BRANCH  16  17
ATOM     17  C   UNL     1      30.516  27.556  89.696  1.00  0.00     0.000 C 
BRANCH  17  18
ATOM     18  C   UNL     1      31.688  28.356  89.117  1.00  0.00     0.000 C 
BRANCH  18  19
ATOM     19  C   UNL     1      32.521  27.639  88.051  1.00  0.00     0.000 C 
BRANCH  19  20
ATOM     20  C   UNL     1      31.730  27.048  86.881  1.00  0.00     0.000 C 
BRANCH  20  21
ATOM     21  C   UNL     1      31.669  25.519  86.827  1.00  0.00     0.001 C 
BRANCH  21  22
ATOM     22  C   UNL     1      30.271  24.979  86.498  1.00  0.00     0.013 C 
BRANCH  22  23
ATOM     23  C   UNL     1      29.472  24.605  87.748  1.00  0.00     0.089 C 
ATOM     24  C   UNL     1      28.060  24.996  87.645  1.00  0.00    -0.107 C 
ATOM     25  C   UNL     1      26.900  25.307  87.567  1.00  0.00     0.004 C 
ENDBRANCH  22  23
ENDBRANCH  21  22
ENDBRANCH  20  21
ENDBRANCH  19  20
ENDBRANCH  18  19
ENDBRANCH  17  18
ENDBRANCH  16  17
ENDBRANCH   1  16
TORSDOF 18
ENDMDL
MODEL 9
REMARK VINA RESULT:    -5.365      3.705      8.287
REMARK INTER + INTRA:         -12.688
REMARK INTER:                 -11.286
REMARK INTRA:                  -1.402
REMARK UNBOUND:                -1.992
REMARK SMILES C#CCCCCCCCCCCC[C@H](O)C[C@H](O)COC(C)=O
REMARK SMILES IDX 11 1 12 2 13 3 14 4 15 5 16 7 17 8 18 9 19 11 20 12 21 13
REMARK SMILES IDX 23 14 22 15 10 16 9 17 8 18 7 19 6 20 5 21 4 22 3 23 2 24
REMARK SMILES IDX 1 25
REMARK H PARENT 15 6 18 10
ROOT
ATOM      1  C   UNL     1      30.211  27.448  88.716  1.00  0.00     0.000 C 
ENDROOT
BRANCH   1   2
ATOM      2  C   UNL     1      29.872  26.501  87.559  1.00  0.00     0.003 C 
BRANCH   2   3
ATOM      3  C   UNL     1      28.539  25.766  87.750  1.00  0.00     0.032 C 
BRANCH   3   4
ATOM      4  C   UNL     1      28.645  24.236  87.669  1.00  0.00     0.117 C 
BRANCH   4   5
ATOM      5  O   UNL     1      29.919  23.850  87.153  1.00  0.00    -0.393 OA
ATOM      6  H   UNL     1      30.533  23.791  87.906  1.00  0.00     0.210 HD
ENDBRANCH   4   5
BRANCH   4   7
ATOM      7  C   UNL     1      27.539  23.601  86.814  1.00  0.00     0.067 C 
BRANCH   7   8
ATOM      8  C   UNL     1      27.062  24.542  85.693  1.00  0.00     0.154 C 
BRANCH   8   9
ATOM      9  O   UNL     1      25.636  24.644  85.703  1.00  0.00    -0.389 OA
ATOM     10  H   UNL     1      25.334  24.263  86.555  1.00  0.00     0.211 HD
ENDBRANCH   8   9
BRANCH   8  11
ATOM     11  C   UNL     1      27.499  24.057  84.306  1.00  0.00     0.264 C 
BRANCH  11  12
ATOM     12  O   UNL     1      28.013  22.718  84.381  1.00  0.00    -0.463 OA
BRANCH  12  13
ATOM     13  C   UNL     1      29.226  22.498  83.810  1.00  0.00     0.302 C 
ATOM     14  O   UNL     1      30.313  22.706  84.329  1.00  0.00    -0.253 OA
ATOM     15  C   UNL     1      29.044  21.972  82.420  1.00  0.00     0.139 C 
ENDBRANCH  12  13
ENDBRANCH  11  12
ENDBRANCH   8  11
ENDBRANCH   7   8
ENDBRANCH   4   7
ENDBRANCH   3   4
ENDBRANCH   2   3
ENDBRANCH   1   2
BRANCH   1  16
ATOM     16  C   UNL     1      28.978  28.125  89.321  1.00  0.00     0.000 C 
BRANCH  16  17
ATOM     17  C   UNL     1      28.679  29.458  88.630  1.00  0.00     0.000 C 
BRANCH  17  18
ATOM     18  C   UNL     1      29.932  30.166  88.106  1.00  0.00     0.000 C 
BRANCH  18  19
ATOM     19  C   UNL     1      29.835  31.690  87.986  1.00  0.00     0.000 C 
BRANCH  19  20
ATOM     20  C   UNL     1      28.610  32.328  88.646  1.00  0.00     0.000 C 
BRANCH  20  21
ATOM     21  C   UNL     1      28.637  33.854  88.761  1.00  0.00     0.001 C 
BRANCH  21  22
ATOM     22  C   UNL     1      27.467  34.421  89.574  1.00  0.00     0.013 C 
BRANCH  22  23
ATOM     23  C   UNL     1      26.581  33.329  90.179  1.00  0.00     0.089 C 
ATOM     24  C   UNL     1      25.168  33.489  89.811  1.00  0.00    -0.107 C 
ATOM     25  C   UNL     1      24.010  33.609  89.509  1.00  0.00     0.004 C 
ENDBRANCH  22  23
ENDBRANCH  21  22
ENDBRANCH  20  21
ENDBRANCH  19  20
ENDBRANCH  18  19
ENDBRANCH  17  18
ENDBRANCH  16  17
ENDBRANCH   1  16
TORSDOF 18
ENDMDL
