MODEL 1
REMARK VINA RESULT:    -5.769      0.000      0.000
REMARK INTER + INTRA:         -13.752
REMARK INTER:                 -11.839
REMARK INTRA:                  -1.912
REMARK UNBOUND:                -1.912
REMARK SMILES C=CCCCCCCCCCCC[C@H](O)C[C@H](O)COC(C)=O
REMARK SMILES IDX 11 1 12 2 13 3 14 4 15 5 16 7 17 8 18 9 19 11 20 12 21 13
REMARK SMILES IDX 23 14 22 15 10 16 9 17 8 18 7 19 6 20 5 21 4 22 3 23 2 24
REMARK SMILES IDX 1 25
REMARK H PARENT 15 6 18 10
ROOT
ATOM      1  C   UNL     1      26.627  32.190  89.696  1.00  0.00     0.000 C 
ENDROOT
BRANCH   1   2
ATOM      2  C   UNL     1      26.219  30.976  88.853  1.00  0.00     0.003 C 
BRANCH   2   3
ATOM      3  C   UNL     1      26.558  29.636  89.513  1.00  0.00     0.032 C 
BRANCH   3   4
ATOM      4  C   UNL     1      26.279  28.427  88.604  1.00  0.00     0.117 C 
BRANCH   4   5
ATOM      5  O   UNL     1      25.075  27.812  89.077  1.00  0.00    -0.393 OA
ATOM      6  H   UNL     1      25.325  27.014  89.575  1.00  0.00     0.210 HD
ENDBRANCH   4   5
BRANCH   4   7
ATOM      7  C   UNL     1      27.410  27.385  88.618  1.00  0.00     0.067 C 
BRANCH   7   8
ATOM      8  C   UNL     1      27.230  26.198  87.656  1.00  0.00     0.154 C 
BRANCH   8   9
ATOM      9  O   UNL     1      26.094  25.431  88.061  1.00  0.00    -0.389 OA
ATOM     10  H   UNL     1      26.406  24.604  88.487  1.00  0.00     0.211 HD
ENDBRANCH   8   9
BRANCH   8  11
ATOM     11  C   UNL     1      28.483  25.341  87.384  1.00  0.00     0.264 C 
BRANCH  11  12
ATOM     12  O   UNL     1      28.263  23.924  87.378  1.00  0.00    -0.463 OA
BRANCH  12  13
ATOM     13  C   UNL     1      27.712  23.399  86.255  1.00  0.00     0.302 C 
ATOM     14  O   UNL     1      26.557  23.001  86.167  1.00  0.00    -0.253 OA
ATOM     15  C   UNL     1      28.719  23.342  85.148  1.00  0.00     0.139 C 
ENDBRANCH  12  13
ENDBRANCH  11  12
ENDBRANCH   8  11
ENDBRANCH   7   8
ENDBRANCH   4   7
ENDBRANCH   3   4
ENDBRANCH   2   3
ENDBRANCH   1   2
BRANCH   1  16
ATOM     16  C   UNL     1      27.888  32.889  89.183  1.00  0.00     0.000 C 
BRANCH  16  17
ATOM     17  C   UNL     1      28.497  32.220  87.944  1.00  0.00     0.000 C 
BRANCH  17  18
ATOM     18  C   UNL     1      29.854  31.563  88.212  1.00  0.00     0.000 C 
BRANCH  18  19
ATOM     19  C   UNL     1      29.920  30.100  87.761  1.00  0.00     0.000 C 
BRANCH  19  20
ATOM     20  C   UNL     1      30.155  29.068  88.869  1.00  0.00     0.000 C 
BRANCH  20  21
ATOM     21  C   UNL     1      31.164  27.962  88.542  1.00  0.00     0.000 C 
BRANCH  21  22
ATOM     22  C   UNL     1      32.605  28.221  88.995  1.00  0.00     0.004 C 
BRANCH  22  23
ATOM     23  C   UNL     1      33.585  28.400  87.829  1.00  0.00     0.027 C 
BRANCH  23  24
ATOM     24  C   UNL     1      34.217  29.761  87.689  1.00  0.00    -0.035 C 
ATOM     25  C   UNL     1      33.598  30.947  87.625  1.00  0.00     0.004 C 
ENDBRANCH  23  24
ENDBRANCH  22  23
ENDBRANCH  21  22
ENDBRANCH  20  21
ENDBRANCH  19  20
ENDBRANCH  18  19
ENDBRANCH  17  18
ENDBRANCH  16  17
ENDBRANCH   1  16
TORSDOF 19
ENDMDL
MODEL 2
REMARK VINA RESULT:    -5.603      1.486      2.105
REMARK INTER + INTRA:         -13.412
REMARK INTER:                 -11.600
REMARK INTRA:                  -1.811
REMARK UNBOUND:                -1.912
REMARK SMILES C=CCCCCCCCCCCC[C@H](O)C[C@H](O)COC(C)=O
REMARK SMILES IDX 11 1 12 2 13 3 14 4 15 5 16 7 17 8 18 9 19 11 20 12 21 13
REMARK SMILES IDX 23 14 22 15 10 16 9 17 8 18 7 19 6 20 5 21 4 22 3 23 2 24
REMARK SMILES IDX 1 25
REMARK H PARENT 15 6 18 10
ROOT
ATOM      1  C   UNL     1      26.657  32.384  90.011  1.00  0.00     0.000 C 
ENDROOT
BRANCH   1   2
ATOM      2  C   UNL     1      26.147  31.185  89.203  1.00  0.00     0.003 C 
BRANCH   2   3
ATOM      3  C   UNL     1      26.481  29.834  89.842  1.00  0.00     0.032 C 
BRANCH   3   4
ATOM      4  C   UNL     1      26.439  28.666  88.842  1.00  0.00     0.117 C 
BRANCH   4   5
ATOM      5  O   UNL     1      25.209  27.967  89.063  1.00  0.00    -0.393 OA
ATOM      6  H   UNL     1      25.285  27.490  89.908  1.00  0.00     0.210 HD
ENDBRANCH   4   5
BRANCH   4   7
ATOM      7  C   UNL     1      27.609  27.682  89.012  1.00  0.00     0.067 C 
BRANCH   7   8
ATOM      8  C   UNL     1      27.707  26.578  87.945  1.00  0.00     0.154 C 
BRANCH   8   9
ATOM      9  O   UNL     1      26.569  25.720  88.050  1.00  0.00    -0.389 OA
ATOM     10  H   UNL     1      26.846  24.874  88.465  1.00  0.00     0.211 HD
ENDBRANCH   8   9
BRANCH   8  11
ATOM     11  C   UNL     1      29.045  25.815  87.868  1.00  0.00     0.264 C 
BRANCH  11  12
ATOM     12  O   UNL     1      29.163  24.699  88.760  1.00  0.00    -0.463 OA
BRANCH  12  13
ATOM     13  C   UNL     1      30.201  24.724  89.632  1.00  0.00     0.302 C 
ATOM     14  O   UNL     1      30.350  23.940  90.561  1.00  0.00    -0.253 OA
ATOM     15  C   UNL     1      31.123  25.863  89.325  1.00  0.00     0.139 C 
ENDBRANCH  12  13
ENDBRANCH  11  12
ENDBRANCH   8  11
ENDBRANCH   7   8
ENDBRANCH   4   7
ENDBRANCH   3   4
ENDBRANCH   2   3
ENDBRANCH   1   2
BRANCH   1  16
ATOM     16  C   UNL     1      27.910  33.030  89.415  1.00  0.00     0.000 C 
BRANCH  16  17
ATOM     17  C   UNL     1      28.328  32.426  88.069  1.00  0.00     0.000 C 
BRANCH  17  18
ATOM     18  C   UNL     1      29.704  31.755  88.104  1.00  0.00     0.000 C 
BRANCH  18  19
ATOM     19  C   UNL     1      29.659  30.258  87.779  1.00  0.00     0.000 C 
BRANCH  19  20
ATOM     20  C   UNL     1      30.928  29.464  88.104  1.00  0.00     0.000 C 
BRANCH  20  21
ATOM     21  C   UNL     1      31.906  29.272  86.940  1.00  0.00     0.000 C 
BRANCH  21  22
ATOM     22  C   UNL     1      33.016  28.240  87.167  1.00  0.00     0.004 C 
BRANCH  22  23
ATOM     23  C   UNL     1      34.342  28.865  87.620  1.00  0.00     0.027 C 
BRANCH  23  24
ATOM     24  C   UNL     1      34.245  30.152  88.397  1.00  0.00    -0.035 C 
ATOM     25  C   UNL     1      34.470  31.395  87.952  1.00  0.00     0.004 C 
ENDBRANCH  23  24
ENDBRANCH  22  23
ENDBRANCH  21  22
ENDBRANCH  20  21
ENDBRANCH  19  20
ENDBRANCH  18  19
ENDBRANCH  17  18
ENDBRANCH  16  17
ENDBRANCH   1  16
TORSDOF 19
ENDMDL
MODEL 3
REMARK VINA RESULT:    -5.535      2.097      5.243
REMARK INTER + INTRA:         -13.272
REMARK INTER:                 -11.742
REMARK INTRA:                  -1.530
REMARK UNBOUND:                -1.912
REMARK SMILES C=CCCCCCCCCCCC[C@H](O)C[C@H](O)COC(C)=O
REMARK SMILES IDX 11 1 12 2 13 3 14 4 15 5 16 7 17 8 18 9 19 11 20 12 21 13
REMARK SMILES IDX 23 14 22 15 10 16 9 17 8 18 7 19 6 20 5 21 4 22 3 23 2 24
REMARK SMILES IDX 1 25
REMARK H PARENT 15 6 18 10
ROOT
ATOM      1  C   UNL     1      29.385  30.065  88.018  1.00  0.00     0.000 C 
ENDROOT
BRANCH   1   2
ATOM      2  C   UNL     1      28.134  29.766  88.853  1.00  0.00     0.003 C 
BRANCH   2   3
ATOM      3  C   UNL     1      26.868  29.589  88.009  1.00  0.00     0.032 C 
BRANCH   3   4
ATOM      4  C   UNL     1      26.353  28.139  87.992  1.00  0.00     0.117 C 
BRANCH   4   5
ATOM      5  O   UNL     1      25.341  28.040  89.001  1.00  0.00    -0.393 OA
ATOM      6  H   UNL     1      24.768  28.823  88.925  1.00  0.00     0.210 HD
ENDBRANCH   4   5
BRANCH   4   7
ATOM      7  C   UNL     1      27.451  27.103  88.284  1.00  0.00     0.067 C 
BRANCH   7   8
ATOM      8  C   UNL     1      27.286  25.745  87.581  1.00  0.00     0.154 C 
BRANCH   8   9
ATOM      9  O   UNL     1      25.964  25.253  87.812  1.00  0.00    -0.389 OA
ATOM     10  H   UNL     1      25.318  25.940  87.539  1.00  0.00     0.211 HD
ENDBRANCH   8   9
BRANCH   8  11
ATOM     11  C   UNL     1      28.385  24.697  87.846  1.00  0.00     0.264 C 
BRANCH  11  12
ATOM     12  O   UNL     1      29.363  25.074  88.825  1.00  0.00    -0.463 OA
BRANCH  12  13
ATOM     13  C   UNL     1      30.660  25.051  88.428  1.00  0.00     0.302 C 
ATOM     14  O   UNL     1      31.449  24.147  88.677  1.00  0.00    -0.253 OA
ATOM     15  C   UNL     1      31.005  26.297  87.674  1.00  0.00     0.139 C 
ENDBRANCH  12  13
ENDBRANCH  11  12
ENDBRANCH   8  11
ENDBRANCH   7   8
ENDBRANCH   4   7
ENDBRANCH   3   4
ENDBRANCH   2   3
ENDBRANCH   1   2
BRANCH   1  16
ATOM     16  C   UNL     1      29.809  31.535  88.063  1.00  0.00     0.000 C 
BRANCH  16  17
ATOM     17  C   UNL     1      28.723  32.468  88.614  1.00  0.00     0.000 C 
BRANCH  17  18
ATOM     18  C   UNL     1      29.097  33.951  88.538  1.00  0.00     0.000 C 
BRANCH  18  19
ATOM     19  C   UNL     1      28.448  34.681  87.358  1.00  0.00     0.000 C 
BRANCH  19  20
ATOM     20  C   UNL     1      27.493  35.822  87.721  1.00  0.00     0.000 C 
BRANCH  20  21
ATOM     21  C   UNL     1      26.503  35.524  88.853  1.00  0.00     0.000 C 
BRANCH  21  22
ATOM     22  C   UNL     1      25.430  34.476  88.539  1.00  0.00     0.004 C 
BRANCH  22  23
ATOM     23  C   UNL     1      25.014  33.649  89.762  1.00  0.00     0.027 C 
BRANCH  23  24
ATOM     24  C   UNL     1      26.079  33.407  90.801  1.00  0.00    -0.035 C 
ATOM     25  C   UNL     1      26.373  34.167  91.863  1.00  0.00     0.004 C 
ENDBRANCH  23  24
ENDBRANCH  22  23
ENDBRANCH  21  22
ENDBRANCH  20  21
ENDBRANCH  19  20
ENDBRANCH  18  19
ENDBRANCH  17  18
ENDBRANCH  16  17
ENDBRANCH   1  16
TORSDOF 19
ENDMDL
MODEL 4
REMARK VINA RESULT:    -5.530      2.730      5.796
REMARK INTER + INTRA:         -13.262
REMARK INTER:                 -10.704
REMARK INTRA:                  -2.557
REMARK UNBOUND:                -1.912
REMARK SMILES C=CCCCCCCCCCCC[C@H](O)C[C@H](O)COC(C)=O
REMARK SMILES IDX 11 1 12 2 13 3 14 4 15 5 16 7 17 8 18 9 19 11 20 12 21 13
REMARK SMILES IDX 23 14 22 15 10 16 9 17 8 18 7 19 6 20 5 21 4 22 3 23 2 24
REMARK SMILES IDX 1 25
REMARK H PARENT 15 6 18 10
ROOT
ATOM      1  C   UNL     1      29.152  29.283  89.035  1.00  0.00     0.000 C 
ENDROOT
BRANCH   1   2
ATOM      2  C   UNL     1      28.683  27.826  88.943  1.00  0.00     0.003 C 
BRANCH   2   3
ATOM      3  C   UNL     1      27.416  27.647  88.101  1.00  0.00     0.032 C 
BRANCH   3   4
ATOM      4  C   UNL     1      26.355  28.727  88.370  1.00  0.00     0.117 C 
BRANCH   4   5
ATOM      5  O   UNL     1      25.202  28.062  88.897  1.00  0.00    -0.393 OA
ATOM      6  H   UNL     1      24.629  28.736  89.304  1.00  0.00     0.210 HD
ENDBRANCH   4   5
BRANCH   4   7
ATOM      7  C   UNL     1      25.948  29.503  87.106  1.00  0.00     0.067 C 
BRANCH   7   8
ATOM      8  C   UNL     1      25.430  30.932  87.343  1.00  0.00     0.154 C 
BRANCH   8   9
ATOM      9  O   UNL     1      25.466  31.657  86.112  1.00  0.00    -0.389 OA
ATOM     10  H   UNL     1      25.991  31.145  85.459  1.00  0.00     0.211 HD
ENDBRANCH   8   9
BRANCH   8  11
ATOM     11  C   UNL     1      26.054  31.700  88.525  1.00  0.00     0.264 C 
BRANCH  11  12
ATOM     12  O   UNL     1      27.393  32.167  88.311  1.00  0.00    -0.463 OA
BRANCH  12  13
ATOM     13  C   UNL     1      27.537  33.481  88.005  1.00  0.00     0.302 C 
ATOM     14  O   UNL     1      27.358  33.960  86.892  1.00  0.00    -0.253 OA
ATOM     15  C   UNL     1      27.977  34.259  89.205  1.00  0.00     0.139 C 
ENDBRANCH  12  13
ENDBRANCH  11  12
ENDBRANCH   8  11
ENDBRANCH   7   8
ENDBRANCH   4   7
ENDBRANCH   3   4
ENDBRANCH   2   3
ENDBRANCH   1   2
BRANCH   1  16
ATOM     16  C   UNL     1      30.032  29.713  87.859  1.00  0.00     0.000 C 
BRANCH  16  17
ATOM     17  C   UNL     1      31.493  29.267  87.993  1.00  0.00     0.000 C 
BRANCH  17  18
ATOM     18  C   UNL     1      32.052  28.621  86.722  1.00  0.00     0.000 C 
BRANCH  18  19
ATOM     19  C   UNL     1      31.654  27.150  86.563  1.00  0.00     0.000 C 
BRANCH  19  20
ATOM     20  C   UNL     1      32.328  26.166  87.524  1.00  0.00     0.000 C 
BRANCH  20  21
ATOM     21  C   UNL     1      31.381  25.349  88.410  1.00  0.00     0.000 C 
BRANCH  21  22
ATOM     22  C   UNL     1      31.882  25.060  89.830  1.00  0.00     0.004 C 
BRANCH  22  23
ATOM     23  C   UNL     1      30.928  25.560  90.922  1.00  0.00     0.027 C 
BRANCH  23  24
ATOM     24  C   UNL     1      31.250  26.901  91.529  1.00  0.00    -0.035 C 
ATOM     25  C   UNL     1      32.260  27.721  91.212  1.00  0.00     0.004 C 
ENDBRANCH  23  24
ENDBRANCH  22  23
ENDBRANCH  21  22
ENDBRANCH  20  21
ENDBRANCH  19  20
ENDBRANCH  18  19
ENDBRANCH  17  18
ENDBRANCH  16  17
ENDBRANCH   1  16
TORSDOF 19
ENDMDL
MODEL 5
REMARK VINA RESULT:    -5.434      3.123      5.472
REMARK INTER + INTRA:         -13.064
REMARK INTER:                 -11.056
REMARK INTRA:                  -2.009
REMARK UNBOUND:                -1.912
REMARK SMILES C=CCCCCCCCCCCC[C@H](O)C[C@H](O)COC(C)=O
REMARK SMILES IDX 11 1 12 2 13 3 14 4 15 5 16 7 17 8 18 9 19 11 20 12 21 13
REMARK SMILES IDX 23 14 22 15 10 16 9 17 8 18 7 19 6 20 5 21 4 22 3 23 2 24
REMARK SMILES IDX 1 25
REMARK H PARENT 15 6 18 10
ROOT
ATOM      1  C   UNL     1      25.378  34.121  90.250  1.00  0.00     0.000 C 
ENDROOT
BRANCH   1   2
ATOM      2  C   UNL     1      25.544  32.836  89.430  1.00  0.00     0.003 C 
BRANCH   2   3
ATOM      3  C   UNL     1      26.464  31.806  90.092  1.00  0.00     0.032 C 
BRANCH   3   4
ATOM      4  C   UNL     1      26.033  30.353  89.828  1.00  0.00     0.117 C 
BRANCH   4   5
ATOM      5  O   UNL     1      26.309  29.609  91.020  1.00  0.00    -0.393 OA
ATOM      6  H   UNL     1      27.250  29.361  91.005  1.00  0.00     0.210 HD
ENDBRANCH   4   5
BRANCH   4   7
ATOM      7  C   UNL     1      26.780  29.705  88.651  1.00  0.00     0.067 C 
BRANCH   7   8
ATOM      8  C   UNL     1      26.324  28.284  88.278  1.00  0.00     0.154 C 
BRANCH   8   9
ATOM      9  O   UNL     1      25.127  27.970  88.993  1.00  0.00    -0.389 OA
ATOM     10  H   UNL     1      25.172  28.383  89.883  1.00  0.00     0.211 HD
ENDBRANCH   8   9
BRANCH   8  11
ATOM     11  C   UNL     1      27.395  27.177  88.359  1.00  0.00     0.264 C 
BRANCH  11  12
ATOM     12  O   UNL     1      27.440  26.288  87.235  1.00  0.00    -0.463 OA
BRANCH  12  13
ATOM     13  C   UNL     1      27.602  24.969  87.509  1.00  0.00     0.302 C 
ATOM     14  O   UNL     1      28.273  24.528  88.434  1.00  0.00    -0.253 OA
ATOM     15  C   UNL     1      26.876  24.127  86.507  1.00  0.00     0.139 C 
ENDBRANCH  12  13
ENDBRANCH  11  12
ENDBRANCH   8  11
ENDBRANCH   7   8
ENDBRANCH   4   7
ENDBRANCH   3   4
ENDBRANCH   2   3
ENDBRANCH   1   2
BRANCH   1  16
ATOM     16  C   UNL     1      26.029  34.047  91.634  1.00  0.00     0.000 C 
BRANCH  16  17
ATOM     17  C   UNL     1      26.852  35.291  91.990  1.00  0.00     0.000 C 
BRANCH  17  18
ATOM     18  C   UNL     1      27.655  35.848  90.811  1.00  0.00     0.000 C 
BRANCH  18  19
ATOM     19  C   UNL     1      27.897  37.359  90.900  1.00  0.00     0.000 C 
BRANCH  19  20
ATOM     20  C   UNL     1      27.982  38.103  89.564  1.00  0.00     0.000 C 
BRANCH  20  21
ATOM     21  C   UNL     1      27.366  37.380  88.362  1.00  0.00     0.000 C 
BRANCH  21  22
ATOM     22  C   UNL     1      28.337  37.023  87.231  1.00  0.00     0.004 C 
BRANCH  22  23
ATOM     23  C   UNL     1      27.923  35.770  86.449  1.00  0.00     0.027 C 
BRANCH  23  24
ATOM     24  C   UNL     1      27.815  34.492  87.240  1.00  0.00    -0.035 C 
ATOM     25  C   UNL     1      28.783  33.870  87.924  1.00  0.00     0.004 C 
ENDBRANCH  23  24
ENDBRANCH  22  23
ENDBRANCH  21  22
ENDBRANCH  20  21
ENDBRANCH  19  20
ENDBRANCH  18  19
ENDBRANCH  17  18
ENDBRANCH  16  17
ENDBRANCH   1  16
TORSDOF 19
ENDMDL
MODEL 6
REMARK VINA RESULT:    -5.427      2.858      7.251
REMARK INTER + INTRA:         -13.051
REMARK INTER:                 -10.948
REMARK INTRA:                  -2.103
REMARK UNBOUND:                -1.912
REMARK SMILES C=CCCCCCCCCCCC[C@H](O)C[C@H](O)COC(C)=O
REMARK SMILES IDX 11 1 12 2 13 3 14 4 15 5 16 7 17 8 18 9 19 11 20 12 21 13
REMARK SMILES IDX 23 14 22 15 10 16 9 17 8 18 7 19 6 20 5 21 4 22 3 23 2 24
REMARK SMILES IDX 1 25
REMARK H PARENT 15 6 18 10
ROOT
ATOM      1  C   UNL     1      29.768  28.132  89.457  1.00  0.00     0.000 C 
ENDROOT
BRANCH   1   2
ATOM      2  C   UNL     1      28.787  28.781  88.473  1.00  0.00     0.003 C 
BRANCH   2   3
ATOM      3  C   UNL     1      27.400  28.130  88.478  1.00  0.00     0.032 C 
BRANCH   3   4
ATOM      4  C   UNL     1      26.326  28.992  87.793  1.00  0.00     0.117 C 
BRANCH   4   5
ATOM      5  O   UNL     1      26.318  28.634  86.407  1.00  0.00    -0.393 OA
ATOM      6  H   UNL     1      26.584  27.700  86.339  1.00  0.00     0.210 HD
ENDBRANCH   4   5
BRANCH   4   7
ATOM      7  C   UNL     1      26.593  30.501  87.917  1.00  0.00     0.067 C 
BRANCH   7   8
ATOM      8  C   UNL     1      25.432  31.417  87.491  1.00  0.00     0.154 C 
BRANCH   8   9
ATOM      9  O   UNL     1      25.506  31.646  86.082  1.00  0.00    -0.389 OA
ATOM     10  H   UNL     1      26.449  31.653  85.811  1.00  0.00     0.211 HD
ENDBRANCH   8   9
BRANCH   8  11
ATOM     11  C   UNL     1      25.241  32.708  88.313  1.00  0.00     0.264 C 
BRANCH  11  12
ATOM     12  O   UNL     1      25.215  33.920  87.548  1.00  0.00    -0.463 OA
BRANCH  12  13
ATOM     13  C   UNL     1      26.314  34.712  87.627  1.00  0.00     0.302 C 
ATOM     14  O   UNL     1      26.994  35.058  86.668  1.00  0.00    -0.253 OA
ATOM     15  C   UNL     1      26.603  35.076  89.050  1.00  0.00     0.139 C 
ENDBRANCH  12  13
ENDBRANCH  11  12
ENDBRANCH   8  11
ENDBRANCH   7   8
ENDBRANCH   4   7
ENDBRANCH   3   4
ENDBRANCH   2   3
ENDBRANCH   1   2
BRANCH   1  16
ATOM     16  C   UNL     1      31.204  28.069  88.930  1.00  0.00     0.000 C 
BRANCH  16  17
ATOM     17  C   UNL     1      31.297  27.651  87.458  1.00  0.00     0.000 C 
BRANCH  17  18
ATOM     18  C   UNL     1      32.020  26.318  87.247  1.00  0.00     0.000 C 
BRANCH  18  19
ATOM     19  C   UNL     1      31.094  25.102  87.348  1.00  0.00     0.000 C 
BRANCH  19  20
ATOM     20  C   UNL     1      29.638  25.332  86.930  1.00  0.00     0.000 C 
BRANCH  20  21
ATOM     21  C   UNL     1      28.578  24.712  87.846  1.00  0.00     0.000 C 
BRANCH  21  22
ATOM     22  C   UNL     1      27.154  24.670  87.283  1.00  0.00     0.004 C 
BRANCH  22  23
ATOM     23  C   UNL     1      27.081  25.016  85.790  1.00  0.00     0.027 C 
BRANCH  23  24
ATOM     24  C   UNL     1      26.937  23.855  84.840  1.00  0.00    -0.035 C 
ATOM     25  C   UNL     1      27.908  23.073  84.350  1.00  0.00     0.004 C 
ENDBRANCH  23  24
ENDBRANCH  22  23
ENDBRANCH  21  22
ENDBRANCH  20  21
ENDBRANCH  19  20
ENDBRANCH  18  19
ENDBRANCH  17  18
ENDBRANCH  16  17
ENDBRANCH   1  16
TORSDOF 19
ENDMDL
MODEL 7
REMARK VINA RESULT:    -5.413      2.630      6.203
REMARK INTER + INTRA:         -13.020
REMARK INTER:                 -11.285
REMARK INTRA:                  -1.736
REMARK UNBOUND:                -1.912
REMARK SMILES C=CCCCCCCCCCCC[C@H](O)C[C@H](O)COC(C)=O
REMARK SMILES IDX 11 1 12 2 13 3 14 4 15 5 16 7 17 8 18 9 19 11 20 12 21 13
REMARK SMILES IDX 23 14 22 15 10 16 9 17 8 18 7 19 6 20 5 21 4 22 3 23 2 24
REMARK SMILES IDX 1 25
REMARK H PARENT 15 6 18 10
ROOT
ATOM      1  C   UNL     1      29.903  29.062  88.685  1.00  0.00     0.000 C 
ENDROOT
BRANCH   1   2
ATOM      2  C   UNL     1      28.551  28.498  88.233  1.00  0.00     0.003 C 
BRANCH   2   3
ATOM      3  C   UNL     1      27.524  28.399  89.364  1.00  0.00     0.032 C 
BRANCH   3   4
ATOM      4  C   UNL     1      26.165  29.024  89.003  1.00  0.00     0.117 C 
BRANCH   4   5
ATOM      5  O   UNL     1      25.196  27.970  89.030  1.00  0.00    -0.393 OA
ATOM      6  H   UNL     1      25.145  27.590  88.135  1.00  0.00     0.210 HD
ENDBRANCH   4   5
BRANCH   4   7
ATOM      7  C   UNL     1      26.151  29.679  87.612  1.00  0.00     0.067 C 
BRANCH   7   8
ATOM      8  C   UNL     1      25.317  30.965  87.492  1.00  0.00     0.154 C 
BRANCH   8   9
ATOM      9  O   UNL     1      24.059  30.656  86.889  1.00  0.00    -0.389 OA
ATOM     10  H   UNL     1      23.367  30.647  87.586  1.00  0.00     0.211 HD
ENDBRANCH   8   9
BRANCH   8  11
ATOM     11  C   UNL     1      26.019  32.181  86.856  1.00  0.00     0.264 C 
BRANCH  11  12
ATOM     12  O   UNL     1      25.426  33.452  87.153  1.00  0.00    -0.463 OA
BRANCH  12  13
ATOM     13  C   UNL     1      26.203  34.348  87.812  1.00  0.00     0.302 C 
ATOM     14  O   UNL     1      25.791  35.154  88.636  1.00  0.00    -0.253 OA
ATOM     15  C   UNL     1      27.629  34.238  87.368  1.00  0.00     0.139 C 
ENDBRANCH  12  13
ENDBRANCH  11  12
ENDBRANCH   8  11
ENDBRANCH   7   8
ENDBRANCH   4   7
ENDBRANCH   3   4
ENDBRANCH   2   3
ENDBRANCH   1   2
BRANCH   1  16
ATOM     16  C   UNL     1      30.276  30.375  87.991  1.00  0.00     0.000 C 
BRANCH  16  17
ATOM     17  C   UNL     1      31.534  30.271  87.121  1.00  0.00     0.000 C 
BRANCH  17  18
ATOM     18  C   UNL     1      32.748  29.714  87.870  1.00  0.00     0.000 C 
BRANCH  18  19
ATOM     19  C   UNL     1      33.347  28.465  87.215  1.00  0.00     0.000 C 
BRANCH  19  20
ATOM     20  C   UNL     1      33.518  27.248  88.129  1.00  0.00     0.000 C 
BRANCH  20  21
ATOM     21  C   UNL     1      32.658  26.029  87.779  1.00  0.00     0.000 C 
BRANCH  21  22
ATOM     22  C   UNL     1      31.524  26.280  86.780  1.00  0.00     0.004 C 
BRANCH  22  23
ATOM     23  C   UNL     1      30.657  25.041  86.522  1.00  0.00     0.027 C 
BRANCH  23  24
ATOM     24  C   UNL     1      29.204  25.149  86.903  1.00  0.00    -0.035 C 
ATOM     25  C   UNL     1      28.447  24.227  87.512  1.00  0.00     0.004 C 
ENDBRANCH  23  24
ENDBRANCH  22  23
ENDBRANCH  21  22
ENDBRANCH  20  21
ENDBRANCH  19  20
ENDBRANCH  18  19
ENDBRANCH  17  18
ENDBRANCH  16  17
ENDBRANCH   1  16
TORSDOF 19
ENDMDL
MODEL 8
REMARK VINA RESULT:    -5.400      2.799      6.174
REMARK INTER + INTRA:         -12.994
REMARK INTER:                 -10.465
REMARK INTRA:                  -2.529
REMARK UNBOUND:                -1.912
REMARK SMILES C=CCCCCCCCCCCC[C@H](O)C[C@H](O)COC(C)=O
REMARK SMILES IDX 11 1 12 2 13 3 14 4 15 5 16 7 17 8 18 9 19 11 20 12 21 13
REMARK SMILES IDX 23 14 22 15 10 16 9 17 8 18 7 19 6 20 5 21 4 22 3 23 2 24
REMARK SMILES IDX 1 25
REMARK H PARENT 15 6 18 10
ROOT
ATOM      1  C   UNL     1      29.107  28.249  89.180  1.00  0.00     0.000 C 
ENDROOT
BRANCH   1   2
ATOM      2  C   UNL     1      28.588  26.959  88.535  1.00  0.00     0.003 C 
BRANCH   2   3
ATOM      3  C   UNL     1      27.190  27.103  87.925  1.00  0.00     0.032 C 
BRANCH   3   4
ATOM      4  C   UNL     1      26.453  28.369  88.397  1.00  0.00     0.117 C 
BRANCH   4   5
ATOM      5  O   UNL     1      25.276  27.938  89.089  1.00  0.00    -0.393 OA
ATOM      6  H   UNL     1      24.905  28.708  89.554  1.00  0.00     0.210 HD
ENDBRANCH   4   5
BRANCH   4   7
ATOM      7  C   UNL     1      26.040  29.295  87.241  1.00  0.00     0.067 C 
BRANCH   7   8
ATOM      8  C   UNL     1      26.519  30.752  87.354  1.00  0.00     0.154 C 
BRANCH   8   9
ATOM      9  O   UNL     1      26.902  31.017  88.705  1.00  0.00    -0.389 OA
ATOM     10  H   UNL     1      26.190  30.705  89.304  1.00  0.00     0.211 HD
ENDBRANCH   8   9
BRANCH   8  11
ATOM     11  C   UNL     1      25.589  31.827  86.758  1.00  0.00     0.264 C 
BRANCH  11  12
ATOM     12  O   UNL     1      26.241  33.032  86.336  1.00  0.00    -0.463 OA
BRANCH  12  13
ATOM     13  C   UNL     1      26.023  34.138  87.091  1.00  0.00     0.302 C 
ATOM     14  O   UNL     1      24.970  34.395  87.661  1.00  0.00    -0.253 OA
ATOM     15  C   UNL     1      27.234  35.018  87.104  1.00  0.00     0.139 C 
ENDBRANCH  12  13
ENDBRANCH  11  12
ENDBRANCH   8  11
ENDBRANCH   7   8
ENDBRANCH   4   7
ENDBRANCH   3   4
ENDBRANCH   2   3
ENDBRANCH   1   2
BRANCH   1  16
ATOM     16  C   UNL     1      30.123  28.996  88.312  1.00  0.00     0.000 C 
BRANCH  16  17
ATOM     17  C   UNL     1      31.087  28.068  87.564  1.00  0.00     0.000 C 
BRANCH  17  18
ATOM     18  C   UNL     1      32.561  28.426  87.771  1.00  0.00     0.000 C 
BRANCH  18  19
ATOM     19  C   UNL     1      33.424  27.230  88.190  1.00  0.00     0.000 C 
BRANCH  19  20
ATOM     20  C   UNL     1      33.969  27.267  89.621  1.00  0.00     0.000 C 
BRANCH  20  21
ATOM     21  C   UNL     1      33.207  28.170  90.598  1.00  0.00     0.000 C 
BRANCH  21  22
ATOM     22  C   UNL     1      32.059  27.502  91.363  1.00  0.00     0.004 C 
BRANCH  22  23
ATOM     23  C   UNL     1      32.138  25.971  91.361  1.00  0.00     0.027 C 
BRANCH  23  24
ATOM     24  C   UNL     1      31.035  25.244  90.635  1.00  0.00    -0.035 C 
ATOM     25  C   UNL     1      31.142  24.475  89.544  1.00  0.00     0.004 C 
ENDBRANCH  23  24
ENDBRANCH  22  23
ENDBRANCH  21  22
ENDBRANCH  20  21
ENDBRANCH  19  20
ENDBRANCH  18  19
ENDBRANCH  17  18
ENDBRANCH  16  17
ENDBRANCH   1  16
TORSDOF 19
ENDMDL
MODEL 9
REMARK VINA RESULT:    -5.345      2.278      5.442
REMARK INTER + INTRA:         -12.882
REMARK INTER:                 -10.530
REMARK INTRA:                  -2.352
REMARK UNBOUND:                -1.912
REMARK SMILES C=CCCCCCCCCCCC[C@H](O)C[C@H](O)COC(C)=O
REMARK SMILES IDX 11 1 12 2 13 3 14 4 15 5 16 7 17 8 18 9 19 11 20 12 21 13
REMARK SMILES IDX 23 14 22 15 10 16 9 17 8 18 7 19 6 20 5 21 4 22 3 23 2 24
REMARK SMILES IDX 1 25
REMARK H PARENT 15 6 18 10
ROOT
ATOM      1  C   UNL     1      31.394  30.634  87.515  1.00  0.00     0.000 C 
ENDROOT
BRANCH   1   2
ATOM      2  C   UNL     1      30.526  29.559  88.180  1.00  0.00     0.003 C 
BRANCH   2   3
ATOM      3  C   UNL     1      29.028  29.735  87.913  1.00  0.00     0.032 C 
BRANCH   3   4
ATOM      4  C   UNL     1      28.219  28.446  88.138  1.00  0.00     0.117 C 
BRANCH   4   5
ATOM      5  O   UNL     1      27.184  28.421  87.149  1.00  0.00    -0.393 OA
ATOM      6  H   UNL     1      27.015  29.338  86.872  1.00  0.00     0.210 HD
ENDBRANCH   4   5
BRANCH   4   7
ATOM      7  C   UNL     1      27.577  28.371  89.534  1.00  0.00     0.067 C 
BRANCH   7   8
ATOM      8  C   UNL     1      26.143  28.920  89.634  1.00  0.00     0.154 C 
BRANCH   8   9
ATOM      9  O   UNL     1      25.246  28.013  88.991  1.00  0.00    -0.389 OA
ATOM     10  H   UNL     1      24.480  27.850  89.584  1.00  0.00     0.211 HD
ENDBRANCH   8   9
BRANCH   8  11
ATOM     11  C   UNL     1      25.940  30.388  89.210  1.00  0.00     0.264 C 
BRANCH  11  12
ATOM     12  O   UNL     1      25.359  30.574  87.913  1.00  0.00    -0.463 OA
BRANCH  12  13
ATOM     13  C   UNL     1      25.783  31.651  87.205  1.00  0.00     0.302 C 
ATOM     14  O   UNL     1      25.557  31.836  86.016  1.00  0.00    -0.253 OA
ATOM     15  C   UNL     1      26.595  32.565  88.069  1.00  0.00     0.139 C 
ENDBRANCH  12  13
ENDBRANCH  11  12
ENDBRANCH   8  11
ENDBRANCH   7   8
ENDBRANCH   4   7
ENDBRANCH   3   4
ENDBRANCH   2   3
ENDBRANCH   1   2
BRANCH   1  16
ATOM     16  C   UNL     1      32.870  30.241  87.406  1.00  0.00     0.000 C 
BRANCH  16  17
ATOM     17  C   UNL     1      33.086  28.812  86.892  1.00  0.00     0.000 C 
BRANCH  17  18
ATOM     18  C   UNL     1      33.815  27.909  87.891  1.00  0.00     0.000 C 
BRANCH  18  19
ATOM     19  C   UNL     1      33.996  28.551  89.271  1.00  0.00     0.000 C 
BRANCH  19  20
ATOM     20  C   UNL     1      33.061  28.043  90.373  1.00  0.00     0.000 C 
BRANCH  20  21
ATOM     21  C   UNL     1      33.376  26.646  90.918  1.00  0.00     0.000 C 
BRANCH  21  22
ATOM     22  C   UNL     1      32.527  25.503  90.351  1.00  0.00     0.004 C 
BRANCH  22  23
ATOM     23  C   UNL     1      31.082  25.915  90.045  1.00  0.00     0.027 C 
BRANCH  23  24
ATOM     24  C   UNL     1      30.660  25.854  88.599  1.00  0.00    -0.035 C 
ATOM     25  C   UNL     1      29.750  25.043  88.046  1.00  0.00     0.004 C 
ENDBRANCH  23  24
ENDBRANCH  22  23
ENDBRANCH  21  22
ENDBRANCH  20  21
ENDBRANCH  19  20
ENDBRANCH  18  19
ENDBRANCH  17  18
ENDBRANCH  16  17
ENDBRANCH   1  16
TORSDOF 19
ENDMDL
