MODEL 1
REMARK VINA RESULT:    -5.012      0.000      0.000
REMARK INTER + INTRA:         -10.146
REMARK INTER:                  -8.529
REMARK INTRA:                  -1.617
REMARK UNBOUND:                -1.617
REMARK SMILES C=CCCCCCCCCCCCc1ccco1
REMARK SMILES IDX 8 1 9 2 10 3 11 4 12 5 13 6 14 7 18 8 17 9 15 10 16 11 7 12
REMARK SMILES IDX 6 13 5 14 4 15 3 16 2 17 1 18
REMARK H PARENT
ROOT
ATOM      1  C   UNL     1      29.537  31.326  88.292  1.00  0.00     0.000 C 
ENDROOT
BRANCH   1   2
ATOM      2  C   UNL     1      30.898  30.999  87.669  1.00  0.00     0.000 C 
BRANCH   2   3
ATOM      3  C   UNL     1      31.253  29.511  87.724  1.00  0.00     0.000 C 
BRANCH   3   4
ATOM      4  C   UNL     1      30.017  28.657  88.010  1.00  0.00     0.000 C 
BRANCH   4   5
ATOM      5  C   UNL     1      30.168  27.885  89.325  1.00  0.00     0.008 C 
BRANCH   5   6
ATOM      6  C   UNL     1      30.304  26.372  89.126  1.00  0.00     0.075 C 
BRANCH   6   7
ATOM      7  C   UNL     1      29.251  25.796  88.211  1.00  0.00     0.103 A 
ATOM      8  O   UNL     1      27.993  26.163  88.499  1.00  0.00    -0.469 OA
ATOM      9  C   UNL     1      27.221  25.542  87.569  1.00  0.00     0.195 A 
ATOM     10  C   UNL     1      29.336  24.972  87.145  1.00  0.00     0.045 A 
ATOM     11  C   UNL     1      28.000  24.798  86.713  1.00  0.00     0.042 A 
ENDBRANCH   6   7
ENDBRANCH   5   6
ENDBRANCH   4   5
ENDBRANCH   3   4
ENDBRANCH   2   3
ENDBRANCH   1   2
BRANCH   1  12
ATOM     12  C   UNL     1      29.156  32.809  88.320  1.00  0.00     0.000 C 
BRANCH  12  13
ATOM     13  C   UNL     1      27.643  33.046  88.317  1.00  0.00     0.000 C 
BRANCH  13  14
ATOM     14  C   UNL     1      26.986  32.771  89.674  1.00  0.00     0.000 C 
BRANCH  14  15
ATOM     15  C   UNL     1      25.945  31.647  89.621  1.00  0.00     0.004 C 
BRANCH  15  16
ATOM     16  C   UNL     1      26.534  30.261  89.911  1.00  0.00     0.027 C 
BRANCH  16  17
ATOM     17  C   UNL     1      26.168  29.232  88.881  1.00  0.00    -0.035 C 
ATOM     18  C   UNL     1      26.393  29.374  87.571  1.00  0.00     0.004 C 
ENDBRANCH  16  17
ENDBRANCH  15  16
ENDBRANCH  14  15
ENDBRANCH  13  14
ENDBRANCH  12  13
ENDBRANCH   1  12
TORSDOF 12
ENDMDL
MODEL 2
REMARK VINA RESULT:    -4.979      1.451      2.474
REMARK INTER + INTRA:         -10.090
REMARK INTER:                  -8.448
REMARK INTRA:                  -1.642
REMARK UNBOUND:                -1.617
REMARK SMILES C=CCCCCCCCCCCCc1ccco1
REMARK SMILES IDX 8 1 9 2 10 3 11 4 12 5 13 6 14 7 18 8 17 9 15 10 16 11 7 12
REMARK SMILES IDX 6 13 5 14 4 15 3 16 2 17 1 18
REMARK H PARENT
ROOT
ATOM      1  C   UNL     1      29.103  32.996  88.567  1.00  0.00     0.000 C 
ENDROOT
BRANCH   1   2
ATOM      2  C   UNL     1      29.807  31.784  87.950  1.00  0.00     0.000 C 
BRANCH   2   3
ATOM      3  C   UNL     1      29.218  30.444  88.396  1.00  0.00     0.000 C 
BRANCH   3   4
ATOM      4  C   UNL     1      27.832  30.218  87.789  1.00  0.00     0.000 C 
BRANCH   4   5
ATOM      5  C   UNL     1      27.215  28.908  88.287  1.00  0.00     0.008 C 
BRANCH   5   6
ATOM      6  C   UNL     1      28.253  27.914  88.818  1.00  0.00     0.075 C 
BRANCH   6   7
ATOM      7  C   UNL     1      28.108  26.532  88.231  1.00  0.00     0.103 A 
ATOM      8  O   UNL     1      29.010  25.638  88.664  1.00  0.00    -0.469 OA
ATOM      9  C   UNL     1      28.701  24.481  88.020  1.00  0.00     0.195 A 
ATOM     10  C   UNL     1      27.232  26.018  87.342  1.00  0.00     0.045 A 
ATOM     11  C   UNL     1      27.614  24.663  87.196  1.00  0.00     0.042 A 
ENDBRANCH   6   7
ENDBRANCH   5   6
ENDBRANCH   4   5
ENDBRANCH   3   4
ENDBRANCH   2   3
ENDBRANCH   1   2
BRANCH   1  12
ATOM     12  C   UNL     1      28.552  34.024  87.573  1.00  0.00     0.000 C 
BRANCH  12  13
ATOM     13  C   UNL     1      27.932  35.250  88.249  1.00  0.00     0.000 C 
BRANCH  13  14
ATOM     14  C   UNL     1      26.441  35.078  88.561  1.00  0.00     0.000 C 
BRANCH  14  15
ATOM     15  C   UNL     1      25.786  33.946  87.762  1.00  0.00     0.004 C 
BRANCH  15  16
ATOM     16  C   UNL     1      25.232  32.822  88.645  1.00  0.00     0.027 C 
BRANCH  16  17
ATOM     17  C   UNL     1      25.785  32.834  90.041  1.00  0.00    -0.035 C 
ATOM     18  C   UNL     1      26.389  31.787  90.614  1.00  0.00     0.004 C 
ENDBRANCH  16  17
ENDBRANCH  15  16
ENDBRANCH  14  15
ENDBRANCH  13  14
ENDBRANCH  12  13
ENDBRANCH   1  12
TORSDOF 12
ENDMDL
MODEL 3
REMARK VINA RESULT:    -4.968      1.099      2.668
REMARK INTER + INTRA:         -10.070
REMARK INTER:                  -8.040
REMARK INTRA:                  -2.031
REMARK UNBOUND:                -1.617
REMARK SMILES C=CCCCCCCCCCCCc1ccco1
REMARK SMILES IDX 8 1 9 2 10 3 11 4 12 5 13 6 14 7 18 8 17 9 15 10 16 11 7 12
REMARK SMILES IDX 6 13 5 14 4 15 3 16 2 17 1 18
REMARK H PARENT
ROOT
ATOM      1  C   UNL     1      26.985  28.128  88.392  1.00  0.00     0.000 C 
ENDROOT
BRANCH   1   2
ATOM      2  C   UNL     1      28.120  28.272  89.411  1.00  0.00     0.000 C 
BRANCH   2   3
ATOM      3  C   UNL     1      29.460  28.659  88.780  1.00  0.00     0.000 C 
BRANCH   3   4
ATOM      4  C   UNL     1      30.626  27.964  89.486  1.00  0.00     0.000 C 
BRANCH   4   5
ATOM      5  C   UNL     1      30.293  26.501  89.797  1.00  0.00     0.008 C 
BRANCH   5   6
ATOM      6  C   UNL     1      30.676  25.540  88.666  1.00  0.00     0.075 C 
BRANCH   6   7
ATOM      7  C   UNL     1      29.509  25.165  87.785  1.00  0.00     0.103 A 
ATOM      8  O   UNL     1      28.367  24.913  88.442  1.00  0.00    -0.469 OA
ATOM      9  C   UNL     1      27.463  24.601  87.475  1.00  0.00     0.195 A 
ATOM     10  C   UNL     1      29.396  25.034  86.447  1.00  0.00     0.045 A 
ATOM     11  C   UNL     1      28.048  24.662  86.231  1.00  0.00     0.042 A 
ENDBRANCH   6   7
ENDBRANCH   5   6
ENDBRANCH   4   5
ENDBRANCH   3   4
ENDBRANCH   2   3
ENDBRANCH   1   2
BRANCH   1  12
ATOM     12  C   UNL     1      26.920  29.211  87.311  1.00  0.00     0.000 C 
BRANCH  12  13
ATOM     13  C   UNL     1      25.590  29.969  87.291  1.00  0.00     0.000 C 
BRANCH  13  14
ATOM     14  C   UNL     1      25.697  31.390  87.856  1.00  0.00     0.000 C 
BRANCH  14  15
ATOM     15  C   UNL     1      25.997  31.421  89.358  1.00  0.00     0.004 C 
BRANCH  15  16
ATOM     16  C   UNL     1      27.240  32.245  89.712  1.00  0.00     0.027 C 
BRANCH  16  17
ATOM     17  C   UNL     1      28.042  32.659  88.512  1.00  0.00    -0.035 C 
ATOM     18  C   UNL     1      29.298  32.264  88.280  1.00  0.00     0.004 C 
ENDBRANCH  16  17
ENDBRANCH  15  16
ENDBRANCH  14  15
ENDBRANCH  13  14
ENDBRANCH  12  13
ENDBRANCH   1  12
TORSDOF 12
ENDMDL
MODEL 4
REMARK VINA RESULT:    -4.918      3.041      7.137
REMARK INTER + INTRA:          -9.985
REMARK INTER:                  -7.771
REMARK INTRA:                  -2.215
REMARK UNBOUND:                -1.617
REMARK SMILES C=CCCCCCCCCCCCc1ccco1
REMARK SMILES IDX 8 1 9 2 10 3 11 4 12 5 13 6 14 7 18 8 17 9 15 10 16 11 7 12
REMARK SMILES IDX 6 13 5 14 4 15 3 16 2 17 1 18
REMARK H PARENT
ROOT
ATOM      1  C   UNL     1      28.227  32.319  89.062  1.00  0.00     0.000 C 
ENDROOT
BRANCH   1   2
ATOM      2  C   UNL     1      26.783  32.365  88.555  1.00  0.00     0.000 C 
BRANCH   2   3
ATOM      3  C   UNL     1      25.746  32.475  89.676  1.00  0.00     0.000 C 
BRANCH   3   4
ATOM      4  C   UNL     1      26.386  32.966  90.976  1.00  0.00     0.000 C 
BRANCH   4   5
ATOM      5  C   UNL     1      25.824  34.330  91.390  1.00  0.00     0.008 C 
BRANCH   5   6
ATOM      6  C   UNL     1      26.869  35.451  91.352  1.00  0.00     0.075 C 
BRANCH   6   7
ATOM      7  C   UNL     1      27.347  35.770  89.957  1.00  0.00     0.103 A 
ATOM      8  O   UNL     1      28.680  35.783  89.809  1.00  0.00    -0.469 OA
ATOM      9  C   UNL     1      28.889  36.086  88.500  1.00  0.00     0.195 A 
ATOM     10  C   UNL     1      26.680  36.049  88.818  1.00  0.00     0.045 A 
ATOM     11  C   UNL     1      27.690  36.259  87.848  1.00  0.00     0.042 A 
ENDBRANCH   6   7
ENDBRANCH   5   6
ENDBRANCH   4   5
ENDBRANCH   3   4
ENDBRANCH   2   3
ENDBRANCH   1   2
BRANCH   1  12
ATOM     12  C   UNL     1      29.314  32.389  87.985  1.00  0.00     0.000 C 
BRANCH  12  13
ATOM     13  C   UNL     1      30.193  31.136  87.928  1.00  0.00     0.000 C 
BRANCH  13  14
ATOM     14  C   UNL     1      29.387  29.838  87.801  1.00  0.00     0.000 C 
BRANCH  14  15
ATOM     15  C   UNL     1      29.725  28.811  88.887  1.00  0.00     0.004 C 
BRANCH  15  16
ATOM     16  C   UNL     1      28.514  27.987  89.339  1.00  0.00     0.027 C 
BRANCH  16  17
ATOM     17  C   UNL     1      27.304  28.822  89.642  1.00  0.00    -0.035 C 
ATOM     18  C   UNL     1      26.118  28.661  89.045  1.00  0.00     0.004 C 
ENDBRANCH  16  17
ENDBRANCH  15  16
ENDBRANCH  14  15
ENDBRANCH  13  14
ENDBRANCH  12  13
ENDBRANCH   1  12
TORSDOF 12
ENDMDL
MODEL 5
REMARK VINA RESULT:    -4.864      1.590      3.772
REMARK INTER + INTRA:          -9.893
REMARK INTER:                  -8.146
REMARK INTRA:                  -1.747
REMARK UNBOUND:                -1.617
REMARK SMILES C=CCCCCCCCCCCCc1ccco1
REMARK SMILES IDX 8 1 9 2 10 3 11 4 12 5 13 6 14 7 18 8 17 9 15 10 16 11 7 12
REMARK SMILES IDX 6 13 5 14 4 15 3 16 2 17 1 18
REMARK H PARENT
ROOT
ATOM      1  C   UNL     1      25.135  32.673  88.962  1.00  0.00     0.000 C 
ENDROOT
BRANCH   1   2
ATOM      2  C   UNL     1      26.111  31.943  89.891  1.00  0.00     0.000 C 
BRANCH   2   3
ATOM      3  C   UNL     1      26.208  30.441  89.615  1.00  0.00     0.000 C 
BRANCH   3   4
ATOM      4  C   UNL     1      26.071  30.142  88.121  1.00  0.00     0.000 C 
BRANCH   4   5
ATOM      5  C   UNL     1      27.266  29.333  87.606  1.00  0.00     0.008 C 
BRANCH   5   6
ATOM      6  C   UNL     1      27.860  28.393  88.661  1.00  0.00     0.075 C 
BRANCH   6   7
ATOM      7  C   UNL     1      27.919  26.955  88.209  1.00  0.00     0.103 A 
ATOM      8  O   UNL     1      26.727  26.397  87.948  1.00  0.00    -0.469 OA
ATOM      9  C   UNL     1      27.007  25.124  87.564  1.00  0.00     0.195 A 
ATOM     10  C   UNL     1      28.956  26.113  88.015  1.00  0.00     0.045 A 
ATOM     11  C   UNL     1      28.365  24.900  87.588  1.00  0.00     0.042 A 
ENDBRANCH   6   7
ENDBRANCH   5   6
ENDBRANCH   4   5
ENDBRANCH   3   4
ENDBRANCH   2   3
ENDBRANCH   1   2
BRANCH   1  12
ATOM     12  C   UNL     1      25.272  34.198  88.918  1.00  0.00     0.000 C 
BRANCH  12  13
ATOM     13  C   UNL     1      26.060  34.770  90.099  1.00  0.00     0.000 C 
BRANCH  13  14
ATOM     14  C   UNL     1      27.126  35.787  89.678  1.00  0.00     0.000 C 
BRANCH  14  15
ATOM     15  C   UNL     1      28.510  35.161  89.477  1.00  0.00     0.004 C 
BRANCH  15  16
ATOM     16  C   UNL     1      28.793  34.767  88.023  1.00  0.00     0.027 C 
BRANCH  16  17
ATOM     17  C   UNL     1      28.670  33.292  87.771  1.00  0.00    -0.035 C 
ATOM     18  C   UNL     1      29.428  32.366  88.369  1.00  0.00     0.004 C 
ENDBRANCH  16  17
ENDBRANCH  15  16
ENDBRANCH  14  15
ENDBRANCH  13  14
ENDBRANCH  12  13
ENDBRANCH   1  12
TORSDOF 12
ENDMDL
MODEL 6
REMARK VINA RESULT:    -4.809      1.945      3.430
REMARK INTER + INTRA:          -9.800
REMARK INTER:                  -9.035
REMARK INTRA:                  -0.765
REMARK UNBOUND:                -1.617
REMARK SMILES C=CCCCCCCCCCCCc1ccco1
REMARK SMILES IDX 8 1 9 2 10 3 11 4 12 5 13 6 14 7 18 8 17 9 15 10 16 11 7 12
REMARK SMILES IDX 6 13 5 14 4 15 3 16 2 17 1 18
REMARK H PARENT
ROOT
ATOM      1  C   UNL     1      29.194  30.462  87.954  1.00  0.00     0.000 C 
ENDROOT
BRANCH   1   2
ATOM      2  C   UNL     1      27.901  29.648  87.851  1.00  0.00     0.000 C 
BRANCH   2   3
ATOM      3  C   UNL     1      27.687  28.692  89.028  1.00  0.00     0.000 C 
BRANCH   3   4
ATOM      4  C   UNL     1      28.861  27.722  89.175  1.00  0.00     0.000 C 
BRANCH   4   5
ATOM      5  C   UNL     1      28.786  26.599  88.136  1.00  0.00     0.008 C 
BRANCH   5   6
ATOM      6  C   UNL     1      27.351  26.166  87.817  1.00  0.00     0.075 C 
BRANCH   6   7
ATOM      7  C   UNL     1      27.280  25.018  86.840  1.00  0.00     0.103 A 
ATOM      8  O   UNL     1      26.295  25.111  85.933  1.00  0.00    -0.469 OA
ATOM      9  C   UNL     1      26.413  23.994  85.167  1.00  0.00     0.195 A 
ATOM     10  C   UNL     1      28.028  23.903  86.704  1.00  0.00     0.045 A 
ATOM     11  C   UNL     1      27.464  23.219  85.600  1.00  0.00     0.042 A 
ENDBRANCH   6   7
ENDBRANCH   5   6
ENDBRANCH   4   5
ENDBRANCH   3   4
ENDBRANCH   2   3
ENDBRANCH   1   2
BRANCH   1  12
ATOM     12  C   UNL     1      29.051  31.866  88.549  1.00  0.00     0.000 C 
BRANCH  12  13
ATOM     13  C   UNL     1      27.683  32.501  88.284  1.00  0.00     0.000 C 
BRANCH  13  14
ATOM     14  C   UNL     1      27.075  33.167  89.524  1.00  0.00     0.000 C 
BRANCH  14  15
ATOM     15  C   UNL     1      27.606  34.584  89.767  1.00  0.00     0.004 C 
BRANCH  15  16
ATOM     16  C   UNL     1      26.836  35.341  90.855  1.00  0.00     0.027 C 
BRANCH  16  17
ATOM     17  C   UNL     1      26.232  34.441  91.893  1.00  0.00    -0.035 C 
ATOM     18  C   UNL     1      25.234  34.803  92.707  1.00  0.00     0.004 C 
ENDBRANCH  16  17
ENDBRANCH  15  16
ENDBRANCH  14  15
ENDBRANCH  13  14
ENDBRANCH  12  13
ENDBRANCH   1  12
TORSDOF 12
ENDMDL
MODEL 7
REMARK VINA RESULT:    -4.795      3.314      5.600
REMARK INTER + INTRA:          -9.776
REMARK INTER:                  -7.385
REMARK INTRA:                  -2.390
REMARK UNBOUND:                -1.617
REMARK SMILES C=CCCCCCCCCCCCc1ccco1
REMARK SMILES IDX 8 1 9 2 10 3 11 4 12 5 13 6 14 7 18 8 17 9 15 10 16 11 7 12
REMARK SMILES IDX 6 13 5 14 4 15 3 16 2 17 1 18
REMARK H PARENT
ROOT
ATOM      1  C   UNL     1      28.491  37.060  90.641  1.00  0.00     0.000 C 
ENDROOT
BRANCH   1   2
ATOM      2  C   UNL     1      27.414  37.087  89.552  1.00  0.00     0.000 C 
BRANCH   2   3
ATOM      3  C   UNL     1      27.678  36.105  88.408  1.00  0.00     0.000 C 
BRANCH   3   4
ATOM      4  C   UNL     1      28.678  35.024  88.826  1.00  0.00     0.000 C 
BRANCH   4   5
ATOM      5  C   UNL     1      28.613  33.816  87.886  1.00  0.00     0.008 C 
BRANCH   5   6
ATOM      6  C   UNL     1      28.930  32.489  88.584  1.00  0.00     0.075 C 
BRANCH   6   7
ATOM      7  C   UNL     1      27.964  31.385  88.228  1.00  0.00     0.103 A 
ATOM      8  O   UNL     1      26.994  31.740  87.372  1.00  0.00    -0.469 OA
ATOM      9  C   UNL     1      26.251  30.616  87.192  1.00  0.00     0.195 A 
ATOM     10  C   UNL     1      27.890  30.094  88.613  1.00  0.00     0.045 A 
ATOM     11  C   UNL     1      26.761  29.576  87.934  1.00  0.00     0.042 A 
ENDBRANCH   6   7
ENDBRANCH   5   6
ENDBRANCH   4   5
ENDBRANCH   3   4
ENDBRANCH   2   3
ENDBRANCH   1   2
BRANCH   1  12
ATOM     12  C   UNL     1      27.997  36.757  92.059  1.00  0.00     0.000 C 
BRANCH  12  13
ATOM     13  C   UNL     1      26.472  36.678  92.165  1.00  0.00     0.000 C 
BRANCH  13  14
ATOM     14  C   UNL     1      25.962  35.274  92.506  1.00  0.00     0.000 C 
BRANCH  14  15
ATOM     15  C   UNL     1      26.858  34.158  91.957  1.00  0.00     0.004 C 
BRANCH  15  16
ATOM     16  C   UNL     1      26.129  33.213  90.994  1.00  0.00     0.027 C 
BRANCH  16  17
ATOM     17  C   UNL     1      25.206  33.924  90.047  1.00  0.00    -0.035 C 
ATOM     18  C   UNL     1      24.513  33.312  89.080  1.00  0.00     0.004 C 
ENDBRANCH  16  17
ENDBRANCH  15  16
ENDBRANCH  14  15
ENDBRANCH  13  14
ENDBRANCH  12  13
ENDBRANCH   1  12
TORSDOF 12
ENDMDL
MODEL 8
REMARK VINA RESULT:    -4.750      1.597      3.482
REMARK INTER + INTRA:          -9.699
REMARK INTER:                  -8.103
REMARK INTRA:                  -1.596
REMARK UNBOUND:                -1.617
REMARK SMILES C=CCCCCCCCCCCCc1ccco1
REMARK SMILES IDX 8 1 9 2 10 3 11 4 12 5 13 6 14 7 18 8 17 9 15 10 16 11 7 12
REMARK SMILES IDX 6 13 5 14 4 15 3 16 2 17 1 18
REMARK H PARENT
ROOT
ATOM      1  C   UNL     1      27.085  31.467  89.813  1.00  0.00     0.000 C 
ENDROOT
BRANCH   1   2
ATOM      2  C   UNL     1      27.731  31.232  88.444  1.00  0.00     0.000 C 
BRANCH   2   3
ATOM      3  C   UNL     1      29.173  31.738  88.355  1.00  0.00     0.000 C 
BRANCH   3   4
ATOM      4  C   UNL     1      30.134  30.608  87.978  1.00  0.00     0.000 C 
BRANCH   4   5
ATOM      5  C   UNL     1      29.470  29.237  88.143  1.00  0.00     0.008 C 
BRANCH   5   6
ATOM      6  C   UNL     1      30.276  28.276  89.023  1.00  0.00     0.075 C 
BRANCH   6   7
ATOM      7  C   UNL     1      29.967  26.824  88.755  1.00  0.00     0.103 A 
ATOM      8  O   UNL     1      28.940  26.612  87.918  1.00  0.00    -0.469 OA
ATOM      9  C   UNL     1      28.837  25.260  87.818  1.00  0.00     0.195 A 
ATOM     10  C   UNL     1      30.535  25.684  89.202  1.00  0.00     0.045 A 
ATOM     11  C   UNL     1      29.796  24.644  88.589  1.00  0.00     0.042 A 
ENDBRANCH   6   7
ENDBRANCH   5   6
ENDBRANCH   4   5
ENDBRANCH   3   4
ENDBRANCH   2   3
ENDBRANCH   1   2
BRANCH   1  12
ATOM     12  C   UNL     1      26.337  32.793  89.978  1.00  0.00     0.000 C 
BRANCH  12  13
ATOM     13  C   UNL     1      25.322  33.059  88.863  1.00  0.00     0.000 C 
BRANCH  13  14
ATOM     14  C   UNL     1      25.499  34.429  88.199  1.00  0.00     0.000 C 
BRANCH  14  15
ATOM     15  C   UNL     1      26.236  34.358  86.858  1.00  0.00     0.004 C 
BRANCH  15  16
ATOM     16  C   UNL     1      27.707  34.782  86.951  1.00  0.00     0.027 C 
BRANCH  16  17
ATOM     17  C   UNL     1      28.027  35.552  88.199  1.00  0.00    -0.035 C 
ATOM     18  C   UNL     1      29.182  35.448  88.865  1.00  0.00     0.004 C 
ENDBRANCH  16  17
ENDBRANCH  15  16
ENDBRANCH  14  15
ENDBRANCH  13  14
ENDBRANCH  12  13
ENDBRANCH   1  12
TORSDOF 12
ENDMDL
MODEL 9
REMARK VINA RESULT:    -4.728      1.455      3.592
REMARK INTER + INTRA:          -9.661
REMARK INTER:                  -8.034
REMARK INTRA:                  -1.627
REMARK UNBOUND:                -1.617
REMARK SMILES C=CCCCCCCCCCCCc1ccco1
REMARK SMILES IDX 8 1 9 2 10 3 11 4 12 5 13 6 14 7 18 8 17 9 15 10 16 11 7 12
REMARK SMILES IDX 6 13 5 14 4 15 3 16 2 17 1 18
REMARK H PARENT
ROOT
ATOM      1  C   UNL     1      28.128  30.641  88.711  1.00  0.00     0.000 C 
ENDROOT
BRANCH   1   2
ATOM      2  C   UNL     1      27.205  30.055  87.638  1.00  0.00     0.000 C 
BRANCH   2   3
ATOM      3  C   UNL     1      26.043  29.240  88.212  1.00  0.00     0.000 C 
BRANCH   3   4
ATOM      4  C   UNL     1      26.515  27.870  88.703  1.00  0.00     0.000 C 
BRANCH   4   5
ATOM      5  C   UNL     1      27.158  27.066  87.567  1.00  0.00     0.008 C 
BRANCH   5   6
ATOM      6  C   UNL     1      28.299  26.159  88.039  1.00  0.00     0.075 C 
BRANCH   6   7
ATOM      7  C   UNL     1      29.463  26.923  88.620  1.00  0.00     0.103 A 
ATOM      8  O   UNL     1      29.575  26.849  89.955  1.00  0.00    -0.469 OA
ATOM      9  C   UNL     1      30.670  27.595  90.262  1.00  0.00     0.195 A 
ATOM     10  C   UNL     1      30.425  27.677  88.045  1.00  0.00     0.045 A 
ATOM     11  C   UNL     1      31.228  28.125  89.121  1.00  0.00     0.042 A 
ENDBRANCH   6   7
ENDBRANCH   5   6
ENDBRANCH   4   5
ENDBRANCH   3   4
ENDBRANCH   2   3
ENDBRANCH   1   2
BRANCH   1  12
ATOM     12  C   UNL     1      29.462  31.200  88.208  1.00  0.00     0.000 C 
BRANCH  12  13
ATOM     13  C   UNL     1      29.595  32.714  88.395  1.00  0.00     0.000 C 
BRANCH  13  14
ATOM     14  C   UNL     1      28.289  33.471  88.133  1.00  0.00     0.000 C 
BRANCH  14  15
ATOM     15  C   UNL     1      27.788  34.250  89.354  1.00  0.00     0.004 C 
BRANCH  15  16
ATOM     16  C   UNL     1      26.502  35.039  89.085  1.00  0.00     0.027 C 
BRANCH  16  17
ATOM     17  C   UNL     1      25.379  34.189  88.565  1.00  0.00    -0.035 C 
ATOM     18  C   UNL     1      24.858  33.152  89.229  1.00  0.00     0.004 C 
ENDBRANCH  16  17
ENDBRANCH  15  16
ENDBRANCH  14  15
ENDBRANCH  13  14
ENDBRANCH  12  13
ENDBRANCH   1  12
TORSDOF 12
ENDMDL
