REMARK SMILES Cc1[nH]c(C(=O)N[C@@H]2CCN(c3ncc(C(=O)O)s3)C[C@@H]2F)c(Cl)c1Cl
REMARK SMILES IDX 8 1 9 2 10 3 11 4 20 5 21 6 22 7 7 8 5 9 6 10 4 12 2 13
REMARK SMILES IDX 25 14 3 15 23 16 1 17 26 18 24 20 12 21 13 22 19 23 14 24
REMARK SMILES IDX 15 25 16 26 17 27 18 28
REMARK H PARENT 7 11 3 19 18 29
ROOT
ATOM      1  C   UNL     1       0.133   3.828  25.026  1.00  0.00     0.120 C 
ATOM      2  C   UNL     1       0.858   2.468  25.034  1.00  0.00     0.049 C 
ATOM      3  C   UNL     1      -0.031   1.420  25.714  1.00  0.00     0.121 C 
ATOM      4  N   UNL     1      -1.309   1.383  24.989  1.00  0.00    -0.345 N 
ATOM      5  C   UNL     1      -2.099   2.619  24.979  1.00  0.00     0.158 C 
ATOM      6  C   UNL     1      -1.234   3.711  24.330  1.00  0.00     0.208 C 
ATOM      7  F   UNL     1      -1.006   3.384  22.990  1.00  0.00    -0.243 F 
ENDROOT
BRANCH   1   8
ATOM      8  N   UNL     1       0.922   4.822  24.285  1.00  0.00    -0.345 N 
ATOM      9  C   UNL     1       2.078   5.335  24.760  1.00  0.00     0.269 C 
ATOM     10  O   UNL     1       2.534   4.990  25.835  1.00  0.00    -0.268 OA
ATOM     11  H   UNL     1       0.595   5.126  23.408  1.00  0.00     0.164 HD
BRANCH   9  12
ATOM     12  C   UNL     1       2.834   6.321  23.990  1.00  0.00     0.125 A 
ATOM     13  C   UNL     1       4.490   7.705  23.475  1.00  0.00     0.033 A 
ATOM     14  C   UNL     1       3.576   7.784  22.478  1.00  0.00     0.080 A 
ATOM     15  N   UNL     1       4.047   6.822  24.400  1.00  0.00    -0.352 N 
ATOM     16  C   UNL     1       2.524   6.919  22.778  1.00  0.00     0.090 A 
ATOM     17  C   UNL     1       5.789   8.462  23.565  1.00  0.00     0.066 C 
ATOM     18  Cl  UNL     1       3.654   8.768  21.053  1.00  0.00    -0.081 Cl
ATOM     19  H   UNL     1       4.516   6.578  25.230  1.00  0.00     0.166 HD
ATOM     20  Cl  UNL     1       1.125   6.710  21.769  1.00  0.00    -0.080 Cl
ENDBRANCH   9  12
ENDBRANCH   1   8
BRANCH   4  21
ATOM     21  C   UNL     1      -1.908   0.157  24.774  1.00  0.00     0.186 A 
ATOM     22  N   UNL     1      -2.995  -0.047  24.077  1.00  0.00    -0.228 NA
ATOM     23  S   UNL     1      -1.294  -1.323  25.369  1.00  0.00    -0.090 S 
ATOM     24  C   UNL     1      -3.410  -1.286  23.964  1.00  0.00     0.141 A 
ATOM     25  C   UNL     1      -2.614  -2.198  24.607  1.00  0.00     0.134 A 
BRANCH  25  26
ATOM     26  C   UNL     1      -2.785  -3.603  24.668  1.00  0.00     0.347 C 
ATOM     27  O   UNL     1      -3.715  -4.145  24.101  1.00  0.00    -0.245 OA
BRANCH  26  28
ATOM     28  O   UNL     1      -1.888  -4.343  25.350  1.00  0.00    -0.477 OA
ATOM     29  H   UNL     1      -1.172  -3.926  25.787  1.00  0.00     0.297 HD
ENDBRANCH  26  28
ENDBRANCH  25  26
ENDBRANCH   4  21
TORSDOF 5
