REMARK SMILES O=C(O)c1ccc(O)cc1
REMARK SMILES IDX 4 1 5 2 10 3 7 4 6 5 9 6 8 7 2 9 1 10 3 11
REMARK H PARENT 8 8 3 12
ROOT
ATOM      1  C   UNL     1      -0.692   0.035   0.000  1.00  0.00     0.060 A 
ATOM      2  C   UNL     1       0.023   1.233   0.000  1.00  0.00     0.019 A 
ATOM      3  C   UNL     1      -0.012  -1.183   0.001  1.00  0.00     0.019 A 
ATOM      4  C   UNL     1       2.098  -0.006   0.000  1.00  0.00     0.115 A 
ATOM      5  C   UNL     1       1.418   1.212   0.000  1.00  0.00     0.047 A 
ATOM      6  C   UNL     1       1.383  -1.203   0.001  1.00  0.00     0.047 A 
ENDROOT
BRANCH   4   7
ATOM      7  O   UNL     1       3.459  -0.025  -0.001  1.00  0.00    -0.508 OA
ATOM      8  H   UNL     1       3.787   0.890  -0.001  1.00  0.00     0.293 HD
ENDBRANCH   4   7
BRANCH   1   9
ATOM      9  C   UNL     1      -2.146   0.057   0.000  1.00  0.00     0.335 C 
ATOM     10  O   UNL     1      -2.847   1.074  -0.000  1.00  0.00    -0.246 OA
BRANCH   9  11
ATOM     11  O   UNL     1      -2.684  -1.194  -0.001  1.00  0.00    -0.478 OA
ATOM     12  H   UNL     1      -3.665  -1.168  -0.002  1.00  0.00     0.297 HD
ENDBRANCH   9  11
ENDBRANCH   1   9
TORSDOF 3
