REMARK SMILES C=CCCCCCCCCCCC[C@H](O)C[C@H](O)COC(C)=O
REMARK SMILES IDX 11 1 12 2 13 3 14 4 15 5 16 7 17 8 18 9 19 11 20 12 21 13
REMARK SMILES IDX 23 14 22 15 10 16 9 17 8 18 7 19 6 20 5 21 4 22 3 23 2 24
REMARK SMILES IDX 1 25
REMARK H PARENT 15 6 18 10
ROOT
ATOM      1  C   UNL     1      -0.238  -1.530   0.031  1.00  0.00     0.000 C 
ENDROOT
BRANCH   1   2
ATOM      2  C   UNL     1      -1.623  -1.111  -0.476  1.00  0.00     0.003 C 
BRANCH   2   3
ATOM      3  C   UNL     1      -2.686  -1.065   0.626  1.00  0.00     0.032 C 
BRANCH   3   4
ATOM      4  C   UNL     1      -4.087  -0.710   0.099  1.00  0.00     0.117 C 
BRANCH   4   5
ATOM      5  O   UNL     1      -4.886  -0.355   1.233  1.00  0.00    -0.393 OA
ATOM      6  H   UNL     1      -4.873  -1.105   1.853  1.00  0.00     0.210 HD
ENDBRANCH   4   5
BRANCH   4   7
ATOM      7  C   UNL     1      -4.766  -1.872  -0.645  1.00  0.00     0.067 C 
BRANCH   7   8
ATOM      8  C   UNL     1      -5.727  -1.465  -1.775  1.00  0.00     0.154 C 
BRANCH   8   9
ATOM      9  O   UNL     1      -5.042  -0.606  -2.689  1.00  0.00    -0.389 OA
ATOM     10  H   UNL     1      -5.489   0.268  -2.698  1.00  0.00     0.211 HD
ENDBRANCH   8   9
BRANCH   8  11
ATOM     11  C   UNL     1      -7.105  -0.926  -1.342  1.00  0.00     0.264 C 
BRANCH  11  12
ATOM     12  O   UNL     1      -7.069   0.156  -0.402  1.00  0.00    -0.463 OA
BRANCH  12  13
ATOM     13  C   UNL     1      -6.744   1.378  -0.894  1.00  0.00     0.302 C 
ATOM     14  O   UNL     1      -6.452   1.603  -2.062  1.00  0.00    -0.253 OA
ATOM     15  C   UNL     1      -6.758   2.407   0.193  1.00  0.00     0.139 C 
ENDBRANCH  12  13
ENDBRANCH  11  12
ENDBRANCH   8  11
ENDBRANCH   7   8
ENDBRANCH   4   7
ENDBRANCH   3   4
ENDBRANCH   2   3
ENDBRANCH   1   2
BRANCH   1  16
ATOM     16  C   UNL     1       0.415  -0.489   0.944  1.00  0.00     0.000 C 
BRANCH  16  17
ATOM     17  C   UNL     1       1.800  -0.906   1.454  1.00  0.00     0.000 C 
BRANCH  17  18
ATOM     18  C   UNL     1       2.863  -0.962   0.353  1.00  0.00     0.000 C 
BRANCH  18  19
ATOM     19  C   UNL     1       4.251  -1.357   0.868  1.00  0.00     0.000 C 
BRANCH  19  20
ATOM     20  C   UNL     1       4.881  -0.406   1.890  1.00  0.00     0.000 C 
BRANCH  20  21
ATOM     21  C   UNL     1       5.014   1.054   1.444  1.00  0.00     0.000 C 
BRANCH  21  22
ATOM     22  C   UNL     1       5.797   1.285   0.147  1.00  0.00     0.004 C 
BRANCH  22  23
ATOM     23  C   UNL     1       7.255   0.816   0.227  1.00  0.00     0.027 C 
BRANCH  23  24
ATOM     24  C   UNL     1       8.114   1.091  -0.980  1.00  0.00    -0.035 C 
ATOM     25  C   UNL     1       7.748   1.673  -2.129  1.00  0.00     0.004 C 
ENDBRANCH  23  24
ENDBRANCH  22  23
ENDBRANCH  21  22
ENDBRANCH  20  21
ENDBRANCH  19  20
ENDBRANCH  18  19
ENDBRANCH  17  18
ENDBRANCH  16  17
ENDBRANCH   1  16
TORSDOF 19
