REMARK SMILES C=CCCCCCCCCCCCc1ccco1
REMARK SMILES IDX 8 1 9 2 10 3 11 4 12 5 13 6 14 7 18 8 17 9 15 10 16 11 7 12
REMARK SMILES IDX 6 13 5 14 4 15 3 16 2 17 1 18
REMARK H PARENT
ROOT
ATOM      1  C   UNL     1       1.080  -0.682  -0.319  1.00  0.00     0.000 C 
ENDROOT
BRANCH   1   2
ATOM      2  C   UNL     1      -0.277  -0.483   0.363  1.00  0.00     0.000 C 
BRANCH   2   3
ATOM      3  C   UNL     1      -1.413  -1.268  -0.298  1.00  0.00     0.000 C 
BRANCH   3   4
ATOM      4  C   UNL     1      -2.757  -0.963   0.367  1.00  0.00     0.000 C 
BRANCH   4   5
ATOM      5  C   UNL     1      -3.889  -1.772  -0.274  1.00  0.00     0.008 C 
BRANCH   5   6
ATOM      6  C   UNL     1      -5.262  -1.485   0.343  1.00  0.00     0.075 C 
BRANCH   6   7
ATOM      7  C   UNL     1      -5.685  -0.043   0.206  1.00  0.00     0.103 A 
ATOM      8  O   UNL     1      -5.767   0.402  -1.057  1.00  0.00    -0.469 OA
ATOM      9  C   UNL     1      -6.157   1.700  -0.951  1.00  0.00     0.195 A 
ATOM     10  C   UNL     1      -6.000   0.895   1.124  1.00  0.00     0.045 A 
ATOM     11  C   UNL     1      -6.314   2.051   0.370  1.00  0.00     0.042 A 
ENDBRANCH   6   7
ENDBRANCH   5   6
ENDBRANCH   4   5
ENDBRANCH   3   4
ENDBRANCH   2   3
ENDBRANCH   1   2
BRANCH   1  12
ATOM     12  C   UNL     1       2.266   0.032   0.337  1.00  0.00     0.000 C 
BRANCH  12  13
ATOM     13  C   UNL     1       3.602  -0.250  -0.356  1.00  0.00     0.000 C 
BRANCH  13  14
ATOM     14  C   UNL     1       4.797   0.402   0.348  1.00  0.00     0.000 C 
BRANCH  14  15
ATOM     15  C   UNL     1       6.130   0.140  -0.361  1.00  0.00     0.004 C 
BRANCH  15  16
ATOM     16  C   UNL     1       7.327   0.798   0.335  1.00  0.00     0.027 C 
BRANCH  16  17
ATOM     17  C   UNL     1       8.631   0.560  -0.370  1.00  0.00    -0.035 C 
ATOM     18  C   UNL     1       9.688  -0.033   0.195  1.00  0.00     0.004 C 
ENDBRANCH  16  17
ENDBRANCH  15  16
ENDBRANCH  14  15
ENDBRANCH  13  14
ENDBRANCH  12  13
ENDBRANCH   1  12
TORSDOF 12
