REMARK SMILES CCO/N=C(\C(=O)N[C@H](C=O)[C@@H]1NC(C(=O)O)=C(Sc2nc(C3=CCN(C)C=C3)cs2)CS1)C1=NC(N)SN1
REMARK SMILES IDX 9 1 12 2 33 3 32 4 13 5 18 6 14 7 19 9 20 10 21 11 31 12
REMARK SMILES IDX 22 13 30 14 23 15 29 16 24 17 28 18 25 19 26 20 27 21 15 22
REMARK SMILES IDX 16 23 17 24 8 26 6 27 7 28 5 30 4 31 34 32 35 33 39 34 36 35
REMARK SMILES IDX 38 36 37 38 3 41 2 42 1 43 10 44 11 45
REMARK H PARENT 13 8 17 25 8 29 39 37 37 39 37 40
ROOT
ATOM      1  C   UNL     1      26.251  26.743  87.567  1.00  0.00     0.178 C 
ENDROOT
BRANCH   1   2
ATOM      2  C   UNL     1      25.935  28.081  88.422  1.00  0.00     0.167 C 
ATOM      3  S   UNL     1      27.154  28.446  89.164  1.00  0.00    -0.129 SA
ATOM      4  C   UNL     1      28.137  29.353  88.139  1.00  0.00     0.117 C 
ATOM      5  N   UNL     1      25.343  29.222  87.467  1.00  0.00    -0.364 N 
ATOM      6  C   UNL     1      27.354  30.592  87.775  1.00  0.00     0.033 C 
ATOM      7  C   UNL     1      25.957  30.553  87.471  1.00  0.00     0.132 C 
ATOM      8  H   UNL     1      24.574  29.031  86.883  1.00  0.00     0.162 HD
BRANCH   6   9
ATOM      9  S   UNL     1      28.472  32.111  87.911  1.00  0.00    -0.060 SA
BRANCH   9  10
ATOM     10  C   UNL     1      27.784  32.898  89.392  1.00  0.00     0.155 A 
ATOM     11  N   UNL     1      27.982  34.145  89.886  1.00  0.00    -0.229 NA
ATOM     12  S   UNL     1      26.689  32.068  90.395  1.00  0.00    -0.115 S 
ATOM     13  C   UNL     1      27.285  34.450  91.040  1.00  0.00     0.082 A 
ATOM     14  C   UNL     1      26.472  33.370  91.502  1.00  0.00     0.096 A 
BRANCH  13  15
ATOM     15  C   UNL     1      27.330  35.786  91.813  1.00  0.00     0.000 C 
ATOM     16  C   UNL     1      28.195  35.967  92.889  1.00  0.00     0.027 C 
ATOM     17  C   UNL     1      26.430  36.807  91.507  1.00  0.00     0.004 C 
ATOM     18  C   UNL     1      28.148  37.181  93.605  1.00  0.00     0.081 C 
ATOM     19  C   UNL     1      26.412  37.978  92.227  1.00  0.00     0.144 C 
ATOM     20  N   UNL     1      27.264  38.137  93.278  1.00  0.00    -0.377 N 
ATOM     21  C   UNL     1      27.263  39.384  94.010  1.00  0.00     0.143 C 
ENDBRANCH  13  15
ENDBRANCH   9  10
ENDBRANCH   6   9
BRANCH   7  22
ATOM     22  C   UNL     1      25.155  31.795  87.131  1.00  0.00     0.352 C 
ATOM     23  O   UNL     1      25.761  32.481  86.279  1.00  0.00    -0.245 OA
BRANCH  22  24
ATOM     24  O   UNL     1      24.080  31.808  87.805  1.00  0.00    -0.477 OA
ATOM     25  H   UNL     1      23.892  31.109  88.400  1.00  0.00     0.297 HD
ENDBRANCH  22  24
ENDBRANCH   7  22
ENDBRANCH   1   2
BRANCH   1  26
ATOM     26  N   UNL     1      27.643  26.585  87.155  1.00  0.00    -0.338 N 
ATOM     27  C   UNL     1      28.334  25.277  87.339  1.00  0.00     0.277 C 
ATOM     28  O   UNL     1      27.748  24.342  87.802  1.00  0.00    -0.267 OA
ATOM     29  H   UNL     1      28.126  27.344  86.755  1.00  0.00     0.164 HD
BRANCH  27  30
ATOM     30  C   UNL     1      29.782  25.185  86.890  1.00  0.00     0.210 C 
ATOM     31  N   UNL     1      30.709  25.861  87.522  1.00  0.00    -0.077 NA
BRANCH  30  32
ATOM     32  C   UNL     1      30.160  24.284  85.759  1.00  0.00     0.169 C 
ATOM     33  N   UNL     1      29.217  23.559  85.038  1.00  0.00    -0.234 NA
ATOM     34  N   UNL     1      31.436  24.163  85.313  1.00  0.00    -0.310 N 
ATOM     35  C   UNL     1      29.772  22.849  83.994  1.00  0.00     0.252 C 
ATOM     36  S   UNL     1      31.424  23.190  84.058  1.00  0.00    -0.007 SA
ATOM     37  H   UNL     1      32.229  24.601  85.699  1.00  0.00     0.177 HD
BRANCH  35  38
ATOM     38  N   UNL     1      29.077  21.982  83.032  1.00  0.00    -0.300 NA
ATOM     39  H   UNL     1      29.753  21.593  82.375  1.00  0.00     0.121 HD
ATOM     40  H   UNL     1      28.383  22.528  82.522  1.00  0.00     0.121 HD
ENDBRANCH  35  38
ENDBRANCH  30  32
BRANCH  31  41
ATOM     41  O   UNL     1      30.925  27.096  87.116  1.00  0.00    -0.395 OA
BRANCH  41  42
ATOM     42  C   UNL     1      31.795  27.910  87.830  1.00  0.00     0.260 C 
ATOM     43  C   UNL     1      32.260  29.161  87.174  1.00  0.00     0.052 C 
ENDBRANCH  41  42
ENDBRANCH  31  41
ENDBRANCH  27  30
ENDBRANCH   1  26
BRANCH   1  44
ATOM     44  C   UNL     1      25.301  26.644  86.412  1.00  0.00     0.252 C 
ATOM     45  O   UNL     1      25.727  26.590  85.248  1.00  0.00    -0.301 OA
ENDBRANCH   1  44
TORSDOF 13
