MODEL 1
REMARK VINA RESULT:    -8.063      0.000      0.000
REMARK INTER + INTRA:         -10.682
REMARK INTER:                 -10.184
REMARK INTRA:                  -0.497
REMARK UNBOUND:                -0.497
REMARK SMILES Cc1[nH]c(C(=O)N[C@@H]2CCN(c3ncc(C(=O)O)s3)C[C@@H]2F)c(Cl)c1Cl
REMARK SMILES IDX 8 1 9 2 10 3 11 4 20 5 21 6 22 7 7 8 5 9 6 10 4 12 2 13
REMARK SMILES IDX 25 14 3 15 23 16 1 17 26 18 24 20 12 21 13 22 19 23 14 24
REMARK SMILES IDX 15 25 16 26 17 27 18 28
REMARK H PARENT 7 11 3 19 18 29
ROOT
ATOM      1  C   UNL     1       0.753   4.014  25.033  1.00  0.00     0.120 C 
ATOM      2  C   UNL     1       1.310   2.580  24.926  1.00  0.00     0.049 C 
ATOM      3  C   UNL     1       0.393   1.619  25.692  1.00  0.00     0.121 C 
ATOM      4  N   UNL     1      -0.959   1.752  25.130  1.00  0.00    -0.345 N 
ATOM      5  C   UNL     1      -1.594   3.069  25.241  1.00  0.00     0.158 C 
ATOM      6  C   UNL     1      -0.692   4.076  24.509  1.00  0.00     0.208 C 
ATOM      7  F   UNL     1      -0.668   3.769  23.146  1.00  0.00    -0.243 F 
ENDROOT
BRANCH   1   8
ATOM      8  N   UNL     1       1.558   4.935  24.218  1.00  0.00    -0.345 N 
ATOM      9  C   UNL     1       2.392   5.849  24.761  1.00  0.00     0.269 C 
ATOM     10  O   UNL     1       2.526   5.951  25.967  1.00  0.00    -0.268 OA
ATOM     11  H   UNL     1       1.486   4.884  23.238  1.00  0.00     0.164 HD
BRANCH   9  12
ATOM     12  C   UNL     1       3.176   6.746  23.914  1.00  0.00     0.125 A 
ATOM     13  C   UNL     1       4.869   8.040  23.295  1.00  0.00     0.033 A 
ATOM     14  C   UNL     1       3.963   8.053  22.287  1.00  0.00     0.080 A 
ATOM     15  N   UNL     1       4.398   7.252  24.289  1.00  0.00    -0.352 N 
ATOM     16  C   UNL     1       2.889   7.242  22.652  1.00  0.00     0.090 A 
ATOM     17  C   UNL     1       6.185   8.771  23.330  1.00  0.00     0.066 C 
ATOM     18  Cl  UNL     1       4.074   8.907  20.782  1.00  0.00    -0.081 Cl
ATOM     19  H   UNL     1       4.856   7.070  25.142  1.00  0.00     0.166 HD
ATOM     20  Cl  UNL     1       1.492   6.979  21.653  1.00  0.00    -0.080 Cl
ENDBRANCH   9  12
ENDBRANCH   1   8
BRANCH   4  21
ATOM     21  C   UNL     1      -1.719   0.610  24.969  1.00  0.00     0.186 A 
ATOM     22  N   UNL     1      -2.935   0.566  24.491  1.00  0.00    -0.228 NA
ATOM     23  S   UNL     1      -1.169  -0.964  25.345  1.00  0.00    -0.090 S 
ATOM     24  C   UNL     1      -3.497  -0.615  24.392  1.00  0.00     0.141 A 
ATOM     25  C   UNL     1      -2.698  -1.646  24.811  1.00  0.00     0.134 A 
BRANCH  25  26
ATOM     26  C   UNL     1      -3.008  -3.029  24.825  1.00  0.00     0.347 C 
ATOM     27  O   UNL     1      -2.315  -3.831  24.228  1.00  0.00    -0.245 OA
BRANCH  26  28
ATOM     28  O   UNL     1      -4.076  -3.454  25.528  1.00  0.00    -0.477 OA
ATOM     29  H   UNL     1      -4.575  -4.187  25.226  1.00  0.00     0.297 HD
ENDBRANCH  26  28
ENDBRANCH  25  26
ENDBRANCH   4  21
TORSDOF 5
ENDMDL
MODEL 2
REMARK VINA RESULT:    -8.019      0.929      1.074
REMARK INTER + INTRA:         -10.627
REMARK INTER:                 -10.128
REMARK INTRA:                  -0.499
REMARK UNBOUND:                -0.497
REMARK SMILES Cc1[nH]c(C(=O)N[C@@H]2CCN(c3ncc(C(=O)O)s3)C[C@@H]2F)c(Cl)c1Cl
REMARK SMILES IDX 8 1 9 2 10 3 11 4 20 5 21 6 22 7 7 8 5 9 6 10 4 12 2 13
REMARK SMILES IDX 25 14 3 15 23 16 1 17 26 18 24 20 12 21 13 22 19 23 14 24
REMARK SMILES IDX 15 25 16 26 17 27 18 28
REMARK H PARENT 7 11 3 19 18 29
ROOT
ATOM      1  C   UNL     1       0.679   3.813  25.061  1.00  0.00     0.120 C 
ATOM      2  C   UNL     1       1.405   2.455  25.138  1.00  0.00     0.049 C 
ATOM      3  C   UNL     1       0.544   1.460  25.925  1.00  0.00     0.121 C 
ATOM      4  N   UNL     1      -0.761   1.374  25.255  1.00  0.00    -0.345 N 
ATOM      5  C   UNL     1      -1.552   2.607  25.188  1.00  0.00     0.158 C 
ATOM      6  C   UNL     1      -0.715   3.648  24.429  1.00  0.00     0.208 C 
ATOM      7  F   UNL     1      -0.539   3.226  23.108  1.00  0.00    -0.243 F 
ENDROOT
BRANCH   1   8
ATOM      8  N   UNL     1       1.437   4.750  24.220  1.00  0.00    -0.345 N 
ATOM      9  C   UNL     1       2.272   5.678  24.736  1.00  0.00     0.269 C 
ATOM     10  O   UNL     1       2.448   5.781  25.936  1.00  0.00    -0.268 OA
ATOM     11  H   UNL     1       1.331   4.699  23.243  1.00  0.00     0.164 HD
BRANCH   9  12
ATOM     12  C   UNL     1       3.010   6.590  23.864  1.00  0.00     0.125 A 
ATOM     13  C   UNL     1       4.662   7.906  23.182  1.00  0.00     0.033 A 
ATOM     14  C   UNL     1       3.711   7.922  22.217  1.00  0.00     0.080 A 
ATOM     15  N   UNL     1       4.244   7.103  24.188  1.00  0.00    -0.352 N 
ATOM     16  C   UNL     1       2.661   7.098  22.622  1.00  0.00     0.090 A 
ATOM     17  C   UNL     1       5.972   8.648  23.165  1.00  0.00     0.066 C 
ATOM     18  Cl  UNL     1       3.746   8.792  20.718  1.00  0.00    -0.081 Cl
ATOM     19  H   UNL     1       4.742   6.916  25.017  1.00  0.00     0.166 HD
ATOM     20  Cl  UNL     1       1.222   6.834  21.685  1.00  0.00    -0.080 Cl
ENDBRANCH   9  12
ENDBRANCH   1   8
BRANCH   4  21
ATOM     21  C   UNL     1      -1.367   0.136  25.152  1.00  0.00     0.186 A 
ATOM     22  N   UNL     1      -0.827  -1.005  25.491  1.00  0.00    -0.228 NA
ATOM     23  S   UNL     1      -2.961  -0.102  24.585  1.00  0.00    -0.090 S 
ATOM     24  C   UNL     1      -1.561  -2.082  25.340  1.00  0.00     0.141 A 
ATOM     25  C   UNL     1      -2.814  -1.834  24.843  1.00  0.00     0.134 A 
BRANCH  25  26
ATOM     26  C   UNL     1      -3.839  -2.774  24.575  1.00  0.00     0.347 C 
ATOM     27  O   UNL     1      -3.793  -3.898  25.038  1.00  0.00    -0.245 OA
BRANCH  26  28
ATOM     28  O   UNL     1      -4.886  -2.402  23.812  1.00  0.00    -0.477 OA
ATOM     29  H   UNL     1      -5.558  -3.021  23.605  1.00  0.00     0.297 HD
ENDBRANCH  26  28
ENDBRANCH  25  26
ENDBRANCH   4  21
TORSDOF 5
ENDMDL
MODEL 3
REMARK VINA RESULT:    -7.180      1.747      2.219
REMARK INTER + INTRA:          -9.566
REMARK INTER:                  -9.023
REMARK INTRA:                  -0.543
REMARK UNBOUND:                -0.497
REMARK SMILES Cc1[nH]c(C(=O)N[C@@H]2CCN(c3ncc(C(=O)O)s3)C[C@@H]2F)c(Cl)c1Cl
REMARK SMILES IDX 8 1 9 2 10 3 11 4 20 5 21 6 22 7 7 8 5 9 6 10 4 12 2 13
REMARK SMILES IDX 25 14 3 15 23 16 1 17 26 18 24 20 12 21 13 22 19 23 14 24
REMARK SMILES IDX 15 25 16 26 17 27 18 28
REMARK H PARENT 7 11 3 19 18 29
ROOT
ATOM      1  C   UNL     1       0.084   3.794  24.492  1.00  0.00     0.120 C 
ATOM      2  C   UNL     1       0.988   2.553  24.623  1.00  0.00     0.049 C 
ATOM      3  C   UNL     1       0.370   1.576  25.630  1.00  0.00     0.121 C 
ATOM      4  N   UNL     1      -0.984   1.250  25.160  1.00  0.00    -0.345 N 
ATOM      5  C   UNL     1      -1.935   2.364  25.062  1.00  0.00     0.158 C 
ATOM      6  C   UNL     1      -1.342   3.387  24.081  1.00  0.00     0.208 C 
ATOM      7  F   UNL     1      -1.275   2.819  22.805  1.00  0.00    -0.243 F 
ENDROOT
BRANCH   1   8
ATOM      8  N   UNL     1       0.602   4.696  23.453  1.00  0.00    -0.345 N 
ATOM      9  C   UNL     1       1.281   5.827  23.744  1.00  0.00     0.269 C 
ATOM     10  O   UNL     1       1.506   6.157  24.894  1.00  0.00    -0.268 OA
ATOM     11  H   UNL     1       0.449   4.466  22.509  1.00  0.00     0.164 HD
BRANCH   9  12
ATOM     12  C   UNL     1       1.782   6.696  22.680  1.00  0.00     0.125 A 
ATOM     13  C   UNL     1       1.773   7.848  20.784  1.00  0.00     0.033 A 
ATOM     14  C   UNL     1       2.984   8.034  21.361  1.00  0.00     0.080 A 
ATOM     15  N   UNL     1       1.036   7.034  21.576  1.00  0.00    -0.352 N 
ATOM     16  C   UNL     1       3.014   7.319  22.558  1.00  0.00     0.090 A 
ATOM     17  C   UNL     1       1.298   8.436  19.481  1.00  0.00     0.066 C 
ATOM     18  Cl  UNL     1       4.302   8.986  20.760  1.00  0.00    -0.081 Cl
ATOM     19  H   UNL     1       0.117   6.734  21.391  1.00  0.00     0.166 HD
ATOM     20  Cl  UNL     1       4.387   7.270  23.622  1.00  0.00    -0.080 Cl
ENDBRANCH   9  12
ENDBRANCH   1   8
BRANCH   4  21
ATOM     21  C   UNL     1      -1.428  -0.052  25.284  1.00  0.00     0.186 A 
ATOM     22  N   UNL     1      -0.698  -1.073  25.650  1.00  0.00    -0.228 NA
ATOM     23  S   UNL     1      -3.042  -0.541  25.004  1.00  0.00    -0.090 S 
ATOM     24  C   UNL     1      -1.296  -2.238  25.730  1.00  0.00     0.141 A 
ATOM     25  C   UNL     1      -2.629  -2.199  25.415  1.00  0.00     0.134 A 
BRANCH  25  26
ATOM     26  C   UNL     1      -3.548  -3.278  25.412  1.00  0.00     0.347 C 
ATOM     27  O   UNL     1      -3.266  -4.338  24.886  1.00  0.00    -0.245 OA
BRANCH  26  28
ATOM     28  O   UNL     1      -4.741  -3.124  26.021  1.00  0.00    -0.477 OA
ATOM     29  H   UNL     1      -5.154  -2.284  26.037  1.00  0.00     0.297 HD
ENDBRANCH  26  28
ENDBRANCH  25  26
ENDBRANCH   4  21
TORSDOF 5
ENDMDL
MODEL 4
REMARK VINA RESULT:    -6.903      4.577      9.820
REMARK INTER + INTRA:          -9.217
REMARK INTER:                  -8.640
REMARK INTRA:                  -0.577
REMARK UNBOUND:                -0.497
REMARK SMILES Cc1[nH]c(C(=O)N[C@@H]2CCN(c3ncc(C(=O)O)s3)C[C@@H]2F)c(Cl)c1Cl
REMARK SMILES IDX 8 1 9 2 10 3 11 4 20 5 21 6 22 7 7 8 5 9 6 10 4 12 2 13
REMARK SMILES IDX 25 14 3 15 23 16 1 17 26 18 24 20 12 21 13 22 19 23 14 24
REMARK SMILES IDX 15 25 16 26 17 27 18 28
REMARK H PARENT 7 11 3 19 18 29
ROOT
ATOM      1  C   UNL     1      -0.729   4.838  22.906  1.00  0.00     0.120 C 
ATOM      2  C   UNL     1      -0.086   5.377  21.613  1.00  0.00     0.049 C 
ATOM      3  C   UNL     1       0.634   6.697  21.912  1.00  0.00     0.121 C 
ATOM      4  N   UNL     1       1.616   6.437  22.974  1.00  0.00    -0.345 N 
ATOM      5  C   UNL     1       1.088   5.978  24.264  1.00  0.00     0.158 C 
ATOM      6  C   UNL     1       0.330   4.666  24.008  1.00  0.00     0.208 C 
ATOM      7  F   UNL     1       1.233   3.686  23.585  1.00  0.00    -0.243 F 
ENDROOT
BRANCH   1   8
ATOM      8  N   UNL     1      -1.333   3.521  22.664  1.00  0.00    -0.345 N 
ATOM      9  C   UNL     1      -2.616   3.239  22.981  1.00  0.00     0.269 C 
ATOM     10  O   UNL     1      -3.347   4.075  23.481  1.00  0.00    -0.268 OA
ATOM     11  H   UNL     1      -0.782   2.816  22.256  1.00  0.00     0.164 HD
BRANCH   9  12
ATOM     12  C   UNL     1      -3.180   1.915  22.722  1.00  0.00     0.125 A 
ATOM     13  C   UNL     1      -4.107   0.258  21.575  1.00  0.00     0.033 A 
ATOM     14  C   UNL     1      -3.927  -0.183  22.843  1.00  0.00     0.080 A 
ATOM     15  N   UNL     1      -3.660   1.533  21.492  1.00  0.00    -0.352 N 
ATOM     16  C   UNL     1      -3.341   0.842  23.585  1.00  0.00     0.090 A 
ATOM     17  C   UNL     1      -4.703  -0.518  20.430  1.00  0.00     0.066 C 
ATOM     18  Cl  UNL     1      -4.330  -1.743  23.483  1.00  0.00    -0.081 Cl
ATOM     19  H   UNL     1      -3.676   2.094  20.684  1.00  0.00     0.166 HD
ATOM     20  Cl  UNL     1      -2.941   0.710  25.271  1.00  0.00    -0.080 Cl
ENDBRANCH   9  12
ENDBRANCH   1   8
BRANCH   4  21
ATOM     21  C   UNL     1       2.852   7.048  22.891  1.00  0.00     0.186 A 
ATOM     22  N   UNL     1       3.256   7.818  21.915  1.00  0.00    -0.228 NA
ATOM     23  S   UNL     1       4.063   6.919  24.090  1.00  0.00    -0.090 S 
ATOM     24  C   UNL     1       4.460   8.329  22.014  1.00  0.00     0.141 A 
ATOM     25  C   UNL     1       5.121   7.970  23.159  1.00  0.00     0.134 A 
BRANCH  25  26
ATOM     26  C   UNL     1       6.423   8.357  23.563  1.00  0.00     0.347 C 
ATOM     27  O   UNL     1       6.980   9.308  23.048  1.00  0.00    -0.245 OA
BRANCH  26  28
ATOM     28  O   UNL     1       7.037   7.667  24.545  1.00  0.00    -0.477 OA
ATOM     29  H   UNL     1       7.492   8.124  25.224  1.00  0.00     0.297 HD
ENDBRANCH  26  28
ENDBRANCH  25  26
ENDBRANCH   4  21
TORSDOF 5
ENDMDL
MODEL 5
REMARK VINA RESULT:    -6.883      3.833      9.652
REMARK INTER + INTRA:          -9.191
REMARK INTER:                  -8.876
REMARK INTRA:                  -0.315
REMARK UNBOUND:                -0.497
REMARK SMILES Cc1[nH]c(C(=O)N[C@@H]2CCN(c3ncc(C(=O)O)s3)C[C@@H]2F)c(Cl)c1Cl
REMARK SMILES IDX 8 1 9 2 10 3 11 4 20 5 21 6 22 7 7 8 5 9 6 10 4 12 2 13
REMARK SMILES IDX 25 14 3 15 23 16 1 17 26 18 24 20 12 21 13 22 19 23 14 24
REMARK SMILES IDX 15 25 16 26 17 27 18 28
REMARK H PARENT 7 11 3 19 18 29
ROOT
ATOM      1  C   UNL     1      -0.541   2.975  25.298  1.00  0.00     0.120 C 
ATOM      2  C   UNL     1      -0.913   4.458  25.107  1.00  0.00     0.049 C 
ATOM      3  C   UNL     1       0.322   5.330  25.364  1.00  0.00     0.121 C 
ATOM      4  N   UNL     1       1.381   4.883  24.447  1.00  0.00    -0.345 N 
ATOM      5  C   UNL     1       1.842   3.498  24.595  1.00  0.00     0.158 C 
ATOM      6  C   UNL     1       0.626   2.584  24.375  1.00  0.00     0.208 C 
ATOM      7  F   UNL     1       0.188   2.709  23.053  1.00  0.00    -0.243 F 
ENDROOT
BRANCH   1   8
ATOM      8  N   UNL     1      -1.683   2.115  24.954  1.00  0.00    -0.345 N 
ATOM      9  C   UNL     1      -1.691   0.786  25.193  1.00  0.00     0.269 C 
ATOM     10  O   UNL     1      -0.746   0.227  25.719  1.00  0.00    -0.268 OA
ATOM     11  H   UNL     1      -2.472   2.525  24.532  1.00  0.00     0.164 HD
BRANCH   9  12
ATOM     12  C   UNL     1      -2.848  -0.034  24.837  1.00  0.00     0.125 A 
ATOM     13  C   UNL     1      -4.408  -1.598  25.043  1.00  0.00     0.033 A 
ATOM     14  C   UNL     1      -4.612  -0.982  23.853  1.00  0.00     0.080 A 
ATOM     15  N   UNL     1      -3.337  -1.032  25.646  1.00  0.00    -0.352 N 
ATOM     16  C   UNL     1      -3.643   0.010  23.702  1.00  0.00     0.090 A 
ATOM     17  C   UNL     1      -5.221  -2.727  25.621  1.00  0.00     0.066 C 
ATOM     18  Cl  UNL     1      -5.849  -1.324  22.688  1.00  0.00    -0.081 Cl
ATOM     19  H   UNL     1      -2.968  -1.292  26.521  1.00  0.00     0.166 HD
ATOM     20  Cl  UNL     1      -3.526   1.044  22.310  1.00  0.00    -0.080 Cl
ENDBRANCH   9  12
ENDBRANCH   1   8
BRANCH   4  21
ATOM     21  C   UNL     1       2.183   5.838  23.853  1.00  0.00     0.186 A 
ATOM     22  N   UNL     1       3.388   6.166  24.240  1.00  0.00    -0.228 NA
ATOM     23  S   UNL     1       1.734   6.737  22.471  1.00  0.00    -0.090 S 
ATOM     24  C   UNL     1       4.011   7.085  23.541  1.00  0.00     0.141 A 
ATOM     25  C   UNL     1       3.283   7.566  22.483  1.00  0.00     0.134 A 
BRANCH  25  26
ATOM     26  C   UNL     1       3.674   8.550  21.542  1.00  0.00     0.347 C 
ATOM     27  O   UNL     1       3.818   8.268  20.367  1.00  0.00    -0.245 OA
BRANCH  26  28
ATOM     28  O   UNL     1       3.867   9.816  21.960  1.00  0.00    -0.477 OA
ATOM     29  H   UNL     1       4.389  10.404  21.451  1.00  0.00     0.297 HD
ENDBRANCH  26  28
ENDBRANCH  25  26
ENDBRANCH   4  21
TORSDOF 5
ENDMDL
MODEL 6
REMARK VINA RESULT:    -6.863      2.679      2.995
REMARK INTER + INTRA:          -9.166
REMARK INTER:                  -8.755
REMARK INTRA:                  -0.411
REMARK UNBOUND:                -0.497
REMARK SMILES Cc1[nH]c(C(=O)N[C@@H]2CCN(c3ncc(C(=O)O)s3)C[C@@H]2F)c(Cl)c1Cl
REMARK SMILES IDX 8 1 9 2 10 3 11 4 20 5 21 6 22 7 7 8 5 9 6 10 4 12 2 13
REMARK SMILES IDX 25 14 3 15 23 16 1 17 26 18 24 20 12 21 13 22 19 23 14 24
REMARK SMILES IDX 15 25 16 26 17 27 18 28
REMARK H PARENT 7 11 3 19 18 29
ROOT
ATOM      1  C   UNL     1       0.480   5.077  25.370  1.00  0.00     0.120 C 
ATOM      2  C   UNL     1       0.222   3.825  24.510  1.00  0.00     0.049 C 
ATOM      3  C   UNL     1      -0.741   2.888  25.249  1.00  0.00     0.121 C 
ATOM      4  N   UNL     1      -1.966   3.647  25.538  1.00  0.00    -0.345 N 
ATOM      5  C   UNL     1      -1.826   4.824  26.402  1.00  0.00     0.158 C 
ATOM      6  C   UNL     1      -0.843   5.784  25.712  1.00  0.00     0.208 C 
ATOM      7  F   UNL     1      -1.406   6.242  24.518  1.00  0.00    -0.243 F 
ENDROOT
BRANCH   1   8
ATOM      8  N   UNL     1       1.316   6.037  24.635  1.00  0.00    -0.345 N 
ATOM      9  C   UNL     1       2.639   5.849  24.438  1.00  0.00     0.269 C 
ATOM     10  O   UNL     1       3.211   4.859  24.857  1.00  0.00    -0.268 OA
ATOM     11  H   UNL     1       0.895   6.849  24.272  1.00  0.00     0.164 HD
BRANCH   9  12
ATOM     12  C   UNL     1       3.434   6.828  23.699  1.00  0.00     0.125 A 
ATOM     13  C   UNL     1       5.131   8.183  23.242  1.00  0.00     0.033 A 
ATOM     14  C   UNL     1       4.245   8.292  22.223  1.00  0.00     0.080 A 
ATOM     15  N   UNL     1       4.646   7.299  24.146  1.00  0.00    -0.352 N 
ATOM     16  C   UNL     1       3.168   7.445  22.486  1.00  0.00     0.090 A 
ATOM     17  C   UNL     1       6.442   8.912  23.375  1.00  0.00     0.066 C 
ATOM     18  Cl  UNL     1       4.379   9.289  20.812  1.00  0.00    -0.081 Cl
ATOM     19  H   UNL     1       5.088   7.037  24.985  1.00  0.00     0.166 HD
ATOM     20  Cl  UNL     1       1.792   7.275  21.439  1.00  0.00    -0.080 Cl
ENDBRANCH   9  12
ENDBRANCH   1   8
BRANCH   4  21
ATOM     21  C   UNL     1      -3.183   3.007  25.404  1.00  0.00     0.186 A 
ATOM     22  N   UNL     1      -3.807   2.353  26.348  1.00  0.00    -0.228 NA
ATOM     23  S   UNL     1      -4.101   2.995  23.962  1.00  0.00    -0.090 S 
ATOM     24  C   UNL     1      -4.967   1.823  26.043  1.00  0.00     0.141 A 
ATOM     25  C   UNL     1      -5.356   2.049  24.748  1.00  0.00     0.134 A 
BRANCH  25  26
ATOM     26  C   UNL     1      -6.550   1.619  24.117  1.00  0.00     0.347 C 
ATOM     27  O   UNL     1      -7.511   2.360  24.026  1.00  0.00    -0.245 OA
BRANCH  26  28
ATOM     28  O   UNL     1      -6.604   0.377  23.595  1.00  0.00    -0.477 OA
ATOM     29  H   UNL     1      -6.611  -0.369  24.162  1.00  0.00     0.297 HD
ENDBRANCH  26  28
ENDBRANCH  25  26
ENDBRANCH   4  21
TORSDOF 5
ENDMDL
MODEL 7
REMARK VINA RESULT:    -6.728      4.226      9.739
REMARK INTER + INTRA:          -8.996
REMARK INTER:                  -8.420
REMARK INTRA:                  -0.576
REMARK UNBOUND:                -0.497
REMARK SMILES Cc1[nH]c(C(=O)N[C@@H]2CCN(c3ncc(C(=O)O)s3)C[C@@H]2F)c(Cl)c1Cl
REMARK SMILES IDX 8 1 9 2 10 3 11 4 20 5 21 6 22 7 7 8 5 9 6 10 4 12 2 13
REMARK SMILES IDX 25 14 3 15 23 16 1 17 26 18 24 20 12 21 13 22 19 23 14 24
REMARK SMILES IDX 15 25 16 26 17 27 18 28
REMARK H PARENT 7 11 3 19 18 29
ROOT
ATOM      1  C   UNL     1      -1.166   2.981  24.101  1.00  0.00     0.120 C 
ATOM      2  C   UNL     1      -0.831   3.441  22.670  1.00  0.00     0.049 C 
ATOM      3  C   UNL     1      -0.454   4.928  22.687  1.00  0.00     0.121 C 
ATOM      4  N   UNL     1       0.670   5.091  23.619  1.00  0.00    -0.345 N 
ATOM      5  C   UNL     1       0.424   4.733  25.021  1.00  0.00     0.158 C 
ATOM      6  C   UNL     1       0.013   3.253  25.051  1.00  0.00     0.208 C 
ATOM      7  F   UNL     1       1.090   2.466  24.632  1.00  0.00    -0.243 F 
ENDROOT
BRANCH   1   8
ATOM      8  N   UNL     1      -1.427   1.535  24.124  1.00  0.00    -0.345 N 
ATOM      9  C   UNL     1      -2.368   0.976  24.916  1.00  0.00     0.269 C 
ATOM     10  O   UNL     1      -3.062   1.652  25.654  1.00  0.00    -0.268 OA
ATOM     11  H   UNL     1      -0.894   0.950  23.538  1.00  0.00     0.164 HD
BRANCH   9  12
ATOM     12  C   UNL     1      -2.597  -0.467  24.906  1.00  0.00     0.125 A 
ATOM     13  C   UNL     1      -2.326  -2.601  25.452  1.00  0.00     0.033 A 
ATOM     14  C   UNL     1      -3.322  -2.544  24.535  1.00  0.00     0.080 A 
ATOM     15  N   UNL     1      -1.877  -1.345  25.682  1.00  0.00    -0.352 N 
ATOM     16  C   UNL     1      -3.513  -1.210  24.177  1.00  0.00     0.090 A 
ATOM     17  C   UNL     1      -1.789  -3.840  26.120  1.00  0.00     0.066 C 
ATOM     18  Cl  UNL     1      -4.235  -3.868  23.888  1.00  0.00    -0.081 Cl
ATOM     19  H   UNL     1      -1.154  -1.100  26.303  1.00  0.00     0.166 HD
ATOM     20  Cl  UNL     1      -4.691  -0.679  23.016  1.00  0.00    -0.080 Cl
ENDBRANCH   9  12
ENDBRANCH   1   8
BRANCH   4  21
ATOM     21  C   UNL     1       1.686   5.962  23.278  1.00  0.00     0.186 A 
ATOM     22  N   UNL     1       1.729   6.696  22.197  1.00  0.00    -0.228 NA
ATOM     23  S   UNL     1       3.063   6.251  24.250  1.00  0.00    -0.090 S 
ATOM     24  C   UNL     1       2.768   7.482  22.047  1.00  0.00     0.141 A 
ATOM     25  C   UNL     1       3.668   7.414  23.079  1.00  0.00     0.134 A 
BRANCH  25  26
ATOM     26  C   UNL     1       4.878   8.137  23.219  1.00  0.00     0.347 C 
ATOM     27  O   UNL     1       5.126   9.087  22.501  1.00  0.00    -0.245 OA
BRANCH  26  28
ATOM     28  O   UNL     1       5.752   7.771  24.178  1.00  0.00    -0.477 OA
ATOM     29  H   UNL     1       5.691   8.145  25.035  1.00  0.00     0.297 HD
ENDBRANCH  26  28
ENDBRANCH  25  26
ENDBRANCH   4  21
TORSDOF 5
ENDMDL
MODEL 8
REMARK VINA RESULT:    -6.687      4.531      5.462
REMARK INTER + INTRA:          -8.943
REMARK INTER:                  -8.353
REMARK INTRA:                  -0.591
REMARK UNBOUND:                -0.497
REMARK SMILES Cc1[nH]c(C(=O)N[C@@H]2CCN(c3ncc(C(=O)O)s3)C[C@@H]2F)c(Cl)c1Cl
REMARK SMILES IDX 8 1 9 2 10 3 11 4 20 5 21 6 22 7 7 8 5 9 6 10 4 12 2 13
REMARK SMILES IDX 25 14 3 15 23 16 1 17 26 18 24 20 12 21 13 22 19 23 14 24
REMARK SMILES IDX 15 25 16 26 17 27 18 28
REMARK H PARENT 7 11 3 19 18 29
ROOT
ATOM      1  C   UNL     1      -1.388   5.454  24.098  1.00  0.00     0.120 C 
ATOM      2  C   UNL     1      -2.479   6.428  24.582  1.00  0.00     0.049 C 
ATOM      3  C   UNL     1      -3.705   5.632  25.044  1.00  0.00     0.121 C 
ATOM      4  N   UNL     1      -3.262   4.702  26.093  1.00  0.00    -0.345 N 
ATOM      5  C   UNL     1      -2.266   3.697  25.707  1.00  0.00     0.158 C 
ATOM      6  C   UNL     1      -1.024   4.451  25.206  1.00  0.00     0.208 C 
ATOM      7  F   UNL     1      -0.462   5.169  26.266  1.00  0.00    -0.243 F 
ENDROOT
BRANCH   1   8
ATOM      8  N   UNL     1      -0.164   6.190  23.750  1.00  0.00    -0.345 N 
ATOM      9  C   UNL     1       0.467   6.035  22.566  1.00  0.00     0.269 C 
ATOM     10  O   UNL     1       0.045   5.274  21.714  1.00  0.00    -0.268 OA
ATOM     11  H   UNL     1       0.209   6.821  24.406  1.00  0.00     0.164 HD
BRANCH   9  12
ATOM     12  C   UNL     1       1.681   6.789  22.258  1.00  0.00     0.125 A 
ATOM     13  C   UNL     1       3.039   8.144  21.143  1.00  0.00     0.033 A 
ATOM     14  C   UNL     1       3.708   7.721  22.243  1.00  0.00     0.080 A 
ATOM     15  N   UNL     1       1.809   7.580  21.141  1.00  0.00    -0.352 N 
ATOM     16  C   UNL     1       2.872   6.868  22.964  1.00  0.00     0.090 A 
ATOM     17  C   UNL     1       3.555   9.082  20.084  1.00  0.00     0.066 C 
ATOM     18  Cl  UNL     1       5.320   8.141  22.722  1.00  0.00    -0.081 Cl
ATOM     19  H   UNL     1       1.118   7.715  20.453  1.00  0.00     0.166 HD
ATOM     20  Cl  UNL     1       3.331   6.088  24.446  1.00  0.00    -0.080 Cl
ENDBRANCH   9  12
ENDBRANCH   1   8
BRANCH   4  21
ATOM     21  C   UNL     1      -4.084   4.502  27.185  1.00  0.00     0.186 A 
ATOM     22  N   UNL     1      -4.497   3.343  27.625  1.00  0.00    -0.228 NA
ATOM     23  S   UNL     1      -4.677   5.762  28.176  1.00  0.00    -0.090 S 
ATOM     24  C   UNL     1      -5.260   3.344  28.691  1.00  0.00     0.141 A 
ATOM     25  C   UNL     1      -5.507   4.595  29.195  1.00  0.00     0.134 A 
BRANCH  25  26
ATOM     26  C   UNL     1      -6.282   4.931  30.332  1.00  0.00     0.347 C 
ATOM     27  O   UNL     1      -7.078   4.141  30.802  1.00  0.00    -0.245 OA
BRANCH  26  28
ATOM     28  O   UNL     1      -6.113   6.140  30.905  1.00  0.00    -0.477 OA
ATOM     29  H   UNL     1      -5.377   6.295  31.463  1.00  0.00     0.297 HD
ENDBRANCH  26  28
ENDBRANCH  25  26
ENDBRANCH   4  21
TORSDOF 5
ENDMDL
