MODEL 1
REMARK VINA RESULT:    -5.531      0.000      0.000
REMARK INTER + INTRA:         -13.357
REMARK INTER:                 -11.352
REMARK INTRA:                  -2.006
REMARK UNBOUND:                -2.006
REMARK SMILES C=CCCCCCCCCCCC[C@H](O)C[C@H](O)COC(C)=O
REMARK SMILES IDX 11 1 12 2 13 3 14 4 15 5 16 7 17 8 18 9 19 11 20 12 21 13
REMARK SMILES IDX 23 14 22 15 10 16 9 17 8 18 7 19 6 20 5 21 4 22 3 23 2 24
REMARK SMILES IDX 1 25
REMARK H PARENT 15 6 18 10
ROOT
ATOM      1  C   UNL     1       4.562   7.387  23.443  1.00  0.00     0.000 C 
ENDROOT
BRANCH   1   2
ATOM      2  C   UNL     1       4.102   8.441  22.429  1.00  0.00     0.003 C 
BRANCH   2   3
ATOM      3  C   UNL     1       3.694   7.848  21.077  1.00  0.00     0.032 C 
BRANCH   3   4
ATOM      4  C   UNL     1       3.139   8.898  20.100  1.00  0.00     0.117 C 
BRANCH   4   5
ATOM      5  O   UNL     1       3.307  10.179  20.718  1.00  0.00    -0.393 OA
ATOM      6  H   UNL     1       3.451  10.034  21.670  1.00  0.00     0.210 HD
ENDBRANCH   4   5
BRANCH   4   7
ATOM      7  C   UNL     1       1.651   8.694  19.773  1.00  0.00     0.067 C 
BRANCH   7   8
ATOM      8  C   UNL     1       1.107   9.533  18.604  1.00  0.00     0.154 C 
BRANCH   8   9
ATOM      9  O   UNL     1       2.103  10.474  18.197  1.00  0.00    -0.389 OA
ATOM     10  H   UNL     1       1.684  11.148  17.619  1.00  0.00     0.211 HD
ENDBRANCH   8   9
BRANCH   8  11
ATOM     11  C   UNL     1      -0.287  10.162  18.802  1.00  0.00     0.264 C 
BRANCH  11  12
ATOM     12  O   UNL     1      -0.410  11.522  18.365  1.00  0.00    -0.463 OA
BRANCH  12  13
ATOM     13  C   UNL     1      -0.355  12.477  19.326  1.00  0.00     0.302 C 
ATOM     14  O   UNL     1      -1.000  12.455  20.367  1.00  0.00    -0.253 OA
ATOM     15  C   UNL     1       0.576  13.579  18.925  1.00  0.00     0.139 C 
ENDBRANCH  12  13
ENDBRANCH  11  12
ENDBRANCH   8  11
ENDBRANCH   7   8
ENDBRANCH   4   7
ENDBRANCH   3   4
ENDBRANCH   2   3
ENDBRANCH   1   2
BRANCH   1  16
ATOM     16  C   UNL     1       3.530   6.281  23.681  1.00  0.00     0.000 C 
BRANCH  16  17
ATOM     17  C   UNL     1       2.462   6.655  24.716  1.00  0.00     0.000 C 
BRANCH  17  18
ATOM     18  C   UNL     1       2.158   5.530  25.710  1.00  0.00     0.000 C 
BRANCH  18  19
ATOM     19  C   UNL     1       2.779   4.186  25.315  1.00  0.00     0.000 C 
BRANCH  19  20
ATOM     20  C   UNL     1       1.821   2.992  25.276  1.00  0.00     0.000 C 
BRANCH  20  21
ATOM     21  C   UNL     1       0.964   2.871  24.012  1.00  0.00     0.000 C 
BRANCH  21  22
ATOM     22  C   UNL     1      -0.445   3.467  24.104  1.00  0.00     0.004 C 
BRANCH  22  23
ATOM     23  C   UNL     1      -0.917   4.113  22.795  1.00  0.00     0.027 C 
BRANCH  23  24
ATOM     24  C   UNL     1      -0.470   5.531  22.549  1.00  0.00    -0.035 C 
ATOM     25  C   UNL     1       0.425   5.962  21.651  1.00  0.00     0.004 C 
ENDBRANCH  23  24
ENDBRANCH  22  23
ENDBRANCH  21  22
ENDBRANCH  20  21
ENDBRANCH  19  20
ENDBRANCH  18  19
ENDBRANCH  17  18
ENDBRANCH  16  17
ENDBRANCH   1  16
TORSDOF 19
ENDMDL
MODEL 2
REMARK VINA RESULT:    -5.453      4.617      7.536
REMARK INTER + INTRA:         -13.197
REMARK INTER:                 -11.076
REMARK INTRA:                  -2.121
REMARK UNBOUND:                -2.006
REMARK SMILES C=CCCCCCCCCCCC[C@H](O)C[C@H](O)COC(C)=O
REMARK SMILES IDX 11 1 12 2 13 3 14 4 15 5 16 7 17 8 18 9 19 11 20 12 21 13
REMARK SMILES IDX 23 14 22 15 10 16 9 17 8 18 7 19 6 20 5 21 4 22 3 23 2 24
REMARK SMILES IDX 1 25
REMARK H PARENT 15 6 18 10
ROOT
ATOM      1  C   UNL     1       4.372   7.358  23.796  1.00  0.00     0.000 C 
ENDROOT
BRANCH   1   2
ATOM      2  C   UNL     1       3.316   6.251  23.702  1.00  0.00     0.003 C 
BRANCH   2   3
ATOM      3  C   UNL     1       2.502   6.076  24.988  1.00  0.00     0.032 C 
BRANCH   3   4
ATOM      4  C   UNL     1       2.648   4.676  25.608  1.00  0.00     0.117 C 
BRANCH   4   5
ATOM      5  O   UNL     1       4.050   4.403  25.708  1.00  0.00    -0.393 OA
ATOM      6  H   UNL     1       4.522   5.253  25.665  1.00  0.00     0.210 HD
ENDBRANCH   4   5
BRANCH   4   7
ATOM      7  C   UNL     1       1.983   3.570  24.771  1.00  0.00     0.067 C 
BRANCH   7   8
ATOM      8  C   UNL     1       0.930   2.723  25.507  1.00  0.00     0.154 C 
BRANCH   8   9
ATOM      9  O   UNL     1       1.454   1.413  25.731  1.00  0.00    -0.389 OA
ATOM     10  H   UNL     1       2.098   1.451  26.471  1.00  0.00     0.211 HD
ENDBRANCH   8   9
BRANCH   8  11
ATOM     11  C   UNL     1      -0.490   2.722  24.907  1.00  0.00     0.264 C 
BRANCH  11  12
ATOM     12  O   UNL     1      -1.020   1.427  24.597  1.00  0.00    -0.463 OA
BRANCH  12  13
ATOM     13  C   UNL     1      -2.284   1.389  24.104  1.00  0.00     0.302 C 
ATOM     14  O   UNL     1      -3.199   0.730  24.584  1.00  0.00    -0.253 OA
ATOM     15  C   UNL     1      -2.399   2.236  22.876  1.00  0.00     0.139 C 
ENDBRANCH  12  13
ENDBRANCH  11  12
ENDBRANCH   8  11
ENDBRANCH   7   8
ENDBRANCH   4   7
ENDBRANCH   3   4
ENDBRANCH   2   3
ENDBRANCH   1   2
BRANCH   1  16
ATOM     16  C   UNL     1       4.717   7.985  22.443  1.00  0.00     0.000 C 
BRANCH  16  17
ATOM     17  C   UNL     1       3.529   8.684  21.772  1.00  0.00     0.000 C 
BRANCH  17  18
ATOM     18  C   UNL     1       3.344   8.296  20.302  1.00  0.00     0.000 C 
BRANCH  18  19
ATOM     19  C   UNL     1       1.915   7.859  19.964  1.00  0.00     0.000 C 
BRANCH  19  20
ATOM     20  C   UNL     1       1.041   7.452  21.154  1.00  0.00     0.000 C 
BRANCH  20  21
ATOM     21  C   UNL     1       0.330   6.101  21.023  1.00  0.00     0.000 C 
BRANCH  21  22
ATOM     22  C   UNL     1      -0.049   5.418  22.342  1.00  0.00     0.004 C 
BRANCH  22  23
ATOM     23  C   UNL     1      -1.376   5.919  22.925  1.00  0.00     0.027 C 
BRANCH  23  24
ATOM     24  C   UNL     1      -1.421   6.109  24.419  1.00  0.00    -0.035 C 
ATOM     25  C   UNL     1      -1.527   7.261  25.094  1.00  0.00     0.004 C 
ENDBRANCH  23  24
ENDBRANCH  22  23
ENDBRANCH  21  22
ENDBRANCH  20  21
ENDBRANCH  19  20
ENDBRANCH  18  19
ENDBRANCH  17  18
ENDBRANCH  16  17
ENDBRANCH   1  16
TORSDOF 19
ENDMDL
MODEL 3
REMARK VINA RESULT:    -5.367      3.857      6.854
REMARK INTER + INTRA:         -13.019
REMARK INTER:                 -11.134
REMARK INTRA:                  -1.886
REMARK UNBOUND:                -2.006
REMARK SMILES C=CCCCCCCCCCCC[C@H](O)C[C@H](O)COC(C)=O
REMARK SMILES IDX 11 1 12 2 13 3 14 4 15 5 16 7 17 8 18 9 19 11 20 12 21 13
REMARK SMILES IDX 23 14 22 15 10 16 9 17 8 18 7 19 6 20 5 21 4 22 3 23 2 24
REMARK SMILES IDX 1 25
REMARK H PARENT 15 6 18 10
ROOT
ATOM      1  C   UNL     1       2.989   8.767  20.275  1.00  0.00     0.000 C 
ENDROOT
BRANCH   1   2
ATOM      2  C   UNL     1       3.924   8.955  21.475  1.00  0.00     0.003 C 
BRANCH   2   3
ATOM      3  C   UNL     1       4.300   7.641  22.166  1.00  0.00     0.032 C 
BRANCH   3   4
ATOM      4  C   UNL     1       3.628   7.466  23.539  1.00  0.00     0.117 C 
BRANCH   4   5
ATOM      5  O   UNL     1       4.492   8.066  24.510  1.00  0.00    -0.393 OA
ATOM      6  H   UNL     1       5.007   7.355  24.930  1.00  0.00     0.210 HD
ENDBRANCH   4   5
BRANCH   4   7
ATOM      7  C   UNL     1       3.398   5.994  23.918  1.00  0.00     0.067 C 
BRANCH   7   8
ATOM      8  C   UNL     1       2.521   5.757  25.158  1.00  0.00     0.154 C 
BRANCH   8   9
ATOM      9  O   UNL     1       2.990   6.575  26.231  1.00  0.00    -0.389 OA
ATOM     10  H   UNL     1       3.054   7.503  25.917  1.00  0.00     0.211 HD
ENDBRANCH   8   9
BRANCH   8  11
ATOM     11  C   UNL     1       2.290   4.287  25.564  1.00  0.00     0.264 C 
BRANCH  11  12
ATOM     12  O   UNL     1       0.916   3.883  25.638  1.00  0.00    -0.463 OA
BRANCH  12  13
ATOM     13  C   UNL     1       0.594   2.710  25.038  1.00  0.00     0.302 C 
ATOM     14  O   UNL     1       0.595   1.620  25.595  1.00  0.00    -0.253 OA
ATOM     15  C   UNL     1       0.270   2.927  23.592  1.00  0.00     0.139 C 
ENDBRANCH  12  13
ENDBRANCH  11  12
ENDBRANCH   8  11
ENDBRANCH   7   8
ENDBRANCH   4   7
ENDBRANCH   3   4
ENDBRANCH   2   3
ENDBRANCH   1   2
BRANCH   1  16
ATOM     16  C   UNL     1       2.279   7.411  20.265  1.00  0.00     0.000 C 
BRANCH  16  17
ATOM     17  C   UNL     1       0.844   7.468  20.802  1.00  0.00     0.000 C 
BRANCH  17  18
ATOM     18  C   UNL     1       0.428   6.206  21.563  1.00  0.00     0.000 C 
BRANCH  18  19
ATOM     19  C   UNL     1      -0.123   6.495  22.964  1.00  0.00     0.000 C 
BRANCH  19  20
ATOM     20  C   UNL     1      -1.637   6.336  23.133  1.00  0.00     0.000 C 
BRANCH  20  21
ATOM     21  C   UNL     1      -2.244   7.031  24.357  1.00  0.00     0.000 C 
BRANCH  21  22
ATOM     22  C   UNL     1      -3.113   6.150  25.260  1.00  0.00     0.004 C 
BRANCH  22  23
ATOM     23  C   UNL     1      -2.297   5.270  26.215  1.00  0.00     0.027 C 
BRANCH  23  24
ATOM     24  C   UNL     1      -2.519   5.496  27.688  1.00  0.00    -0.035 C 
ATOM     25  C   UNL     1      -3.627   5.949  28.288  1.00  0.00     0.004 C 
ENDBRANCH  23  24
ENDBRANCH  22  23
ENDBRANCH  21  22
ENDBRANCH  20  21
ENDBRANCH  19  20
ENDBRANCH  18  19
ENDBRANCH  17  18
ENDBRANCH  16  17
ENDBRANCH   1  16
TORSDOF 19
ENDMDL
MODEL 4
REMARK VINA RESULT:    -5.209      3.786      6.690
REMARK INTER + INTRA:         -12.696
REMARK INTER:                 -10.790
REMARK INTRA:                  -1.906
REMARK UNBOUND:                -2.006
REMARK SMILES C=CCCCCCCCCCCC[C@H](O)C[C@H](O)COC(C)=O
REMARK SMILES IDX 11 1 12 2 13 3 14 4 15 5 16 7 17 8 18 9 19 11 20 12 21 13
REMARK SMILES IDX 23 14 22 15 10 16 9 17 8 18 7 19 6 20 5 21 4 22 3 23 2 24
REMARK SMILES IDX 1 25
REMARK H PARENT 15 6 18 10
ROOT
ATOM      1  C   UNL     1       2.949   8.935  20.220  1.00  0.00     0.000 C 
ENDROOT
BRANCH   1   2
ATOM      2  C   UNL     1       3.889   9.047  21.426  1.00  0.00     0.003 C 
BRANCH   2   3
ATOM      3  C   UNL     1       4.280   7.690  22.020  1.00  0.00     0.032 C 
BRANCH   3   4
ATOM      4  C   UNL     1       3.877   7.539  23.496  1.00  0.00     0.117 C 
BRANCH   4   5
ATOM      5  O   UNL     1       5.024   7.878  24.283  1.00  0.00    -0.393 OA
ATOM      6  H   UNL     1       5.813   7.762  23.725  1.00  0.00     0.210 HD
ENDBRANCH   4   5
BRANCH   4   7
ATOM      7  C   UNL     1       3.429   6.113  23.858  1.00  0.00     0.067 C 
BRANCH   7   8
ATOM      8  C   UNL     1       2.404   6.009  25.001  1.00  0.00     0.154 C 
BRANCH   8   9
ATOM      9  O   UNL     1       2.956   6.593  26.182  1.00  0.00    -0.389 OA
ATOM     10  H   UNL     1       3.796   6.135  26.400  1.00  0.00     0.211 HD
ENDBRANCH   8   9
BRANCH   8  11
ATOM     11  C   UNL     1       1.779   4.620  25.237  1.00  0.00     0.264 C 
BRANCH  11  12
ATOM     12  O   UNL     1       0.380   4.625  25.548  1.00  0.00    -0.463 OA
BRANCH  12  13
ATOM     13  C   UNL     1      -0.378   3.669  24.954  1.00  0.00     0.302 C 
ATOM     14  O   UNL     1      -1.475   3.300  25.356  1.00  0.00    -0.253 OA
ATOM     15  C   UNL     1       0.324   3.103  23.760  1.00  0.00     0.139 C 
ENDBRANCH  12  13
ENDBRANCH  11  12
ENDBRANCH   8  11
ENDBRANCH   7   8
ENDBRANCH   4   7
ENDBRANCH   3   4
ENDBRANCH   2   3
ENDBRANCH   1   2
BRANCH   1  16
ATOM     16  C   UNL     1       2.223   7.590  20.138  1.00  0.00     0.000 C 
BRANCH  16  17
ATOM     17  C   UNL     1       0.843   7.598  20.806  1.00  0.00     0.000 C 
BRANCH  17  18
ATOM     18  C   UNL     1       0.609   6.404  21.736  1.00  0.00     0.000 C 
BRANCH  18  19
ATOM     19  C   UNL     1      -0.812   5.838  21.653  1.00  0.00     0.000 C 
BRANCH  19  20
ATOM     20  C   UNL     1      -1.782   6.303  22.743  1.00  0.00     0.000 C 
BRANCH  20  21
ATOM     21  C   UNL     1      -2.961   7.156  22.262  1.00  0.00     0.000 C 
BRANCH  21  22
ATOM     22  C   UNL     1      -2.970   7.497  20.768  1.00  0.00     0.004 C 
BRANCH  22  23
ATOM     23  C   UNL     1      -3.878   6.577  19.941  1.00  0.00     0.027 C 
BRANCH  23  24
ATOM     24  C   UNL     1      -4.431   7.154  18.664  1.00  0.00    -0.035 C 
ATOM     25  C   UNL     1      -5.319   8.147  18.533  1.00  0.00     0.004 C 
ENDBRANCH  23  24
ENDBRANCH  22  23
ENDBRANCH  21  22
ENDBRANCH  20  21
ENDBRANCH  19  20
ENDBRANCH  18  19
ENDBRANCH  17  18
ENDBRANCH  16  17
ENDBRANCH   1  16
TORSDOF 19
ENDMDL
MODEL 5
REMARK VINA RESULT:    -5.003      2.567      5.316
REMARK INTER + INTRA:         -12.274
REMARK INTER:                 -10.190
REMARK INTRA:                  -2.084
REMARK UNBOUND:                -2.006
REMARK SMILES C=CCCCCCCCCCCC[C@H](O)C[C@H](O)COC(C)=O
REMARK SMILES IDX 11 1 12 2 13 3 14 4 15 5 16 7 17 8 18 9 19 11 20 12 21 13
REMARK SMILES IDX 23 14 22 15 10 16 9 17 8 18 7 19 6 20 5 21 4 22 3 23 2 24
REMARK SMILES IDX 1 25
REMARK H PARENT 15 6 18 10
ROOT
ATOM      1  C   UNL     1       1.808   2.525  25.591  1.00  0.00     0.000 C 
ENDROOT
BRANCH   1   2
ATOM      2  C   UNL     1       2.579   3.647  24.886  1.00  0.00     0.003 C 
BRANCH   2   3
ATOM      3  C   UNL     1       2.979   4.792  25.823  1.00  0.00     0.032 C 
BRANCH   3   4
ATOM      4  C   UNL     1       2.348   6.139  25.433  1.00  0.00     0.117 C 
BRANCH   4   5
ATOM      5  O   UNL     1       0.938   6.024  25.653  1.00  0.00    -0.393 OA
ATOM      6  H   UNL     1       0.494   6.677  25.085  1.00  0.00     0.210 HD
ENDBRANCH   4   5
BRANCH   4   7
ATOM      7  C   UNL     1       2.593   6.519  23.963  1.00  0.00     0.067 C 
BRANCH   7   8
ATOM      8  C   UNL     1       3.964   7.148  23.659  1.00  0.00     0.154 C 
BRANCH   8   9
ATOM      9  O   UNL     1       4.219   8.196  24.597  1.00  0.00    -0.389 OA
ATOM     10  H   UNL     1       3.508   8.868  24.523  1.00  0.00     0.211 HD
ENDBRANCH   8   9
BRANCH   8  11
ATOM     11  C   UNL     1       4.220   7.560  22.196  1.00  0.00     0.264 C 
BRANCH  11  12
ATOM     12  O   UNL     1       3.432   8.661  21.725  1.00  0.00    -0.463 OA
BRANCH  12  13
ATOM     13  C   UNL     1       2.632   8.423  20.655  1.00  0.00     0.302 C 
ATOM     14  O   UNL     1       1.820   7.509  20.584  1.00  0.00    -0.253 OA
ATOM     15  C   UNL     1       2.902   9.409  19.562  1.00  0.00     0.139 C 
ENDBRANCH  12  13
ENDBRANCH  11  12
ENDBRANCH   8  11
ENDBRANCH   7   8
ENDBRANCH   4   7
ENDBRANCH   3   4
ENDBRANCH   2   3
ENDBRANCH   1   2
BRANCH   1  16
ATOM     16  C   UNL     1       0.353   2.406  25.131  1.00  0.00     0.000 C 
BRANCH  16  17
ATOM     17  C   UNL     1      -0.205   0.981  25.226  1.00  0.00     0.000 C 
BRANCH  17  18
ATOM     18  C   UNL     1      -1.709   0.895  24.953  1.00  0.00     0.000 C 
BRANCH  18  19
ATOM     19  C   UNL     1      -2.214   1.977  23.993  1.00  0.00     0.000 C 
BRANCH  19  20
ATOM     20  C   UNL     1      -3.314   2.894  24.537  1.00  0.00     0.000 C 
BRANCH  20  21
ATOM     21  C   UNL     1      -3.327   4.320  23.977  1.00  0.00     0.000 C 
BRANCH  21  22
ATOM     22  C   UNL     1      -2.186   5.230  24.446  1.00  0.00     0.004 C 
BRANCH  22  23
ATOM     23  C   UNL     1      -1.764   6.264  23.394  1.00  0.00     0.027 C 
BRANCH  23  24
ATOM     24  C   UNL     1      -0.883   5.762  22.279  1.00  0.00    -0.035 C 
ATOM     25  C   UNL     1      -0.175   4.626  22.243  1.00  0.00     0.004 C 
ENDBRANCH  23  24
ENDBRANCH  22  23
ENDBRANCH  21  22
ENDBRANCH  20  21
ENDBRANCH  19  20
ENDBRANCH  18  19
ENDBRANCH  17  18
ENDBRANCH  16  17
ENDBRANCH   1  16
TORSDOF 19
ENDMDL
MODEL 6
REMARK VINA RESULT:    -4.965      3.236      7.329
REMARK INTER + INTRA:         -12.196
REMARK INTER:                 -10.797
REMARK INTRA:                  -1.399
REMARK UNBOUND:                -2.006
REMARK SMILES C=CCCCCCCCCCCC[C@H](O)C[C@H](O)COC(C)=O
REMARK SMILES IDX 11 1 12 2 13 3 14 4 15 5 16 7 17 8 18 9 19 11 20 12 21 13
REMARK SMILES IDX 23 14 22 15 10 16 9 17 8 18 7 19 6 20 5 21 4 22 3 23 2 24
REMARK SMILES IDX 1 25
REMARK H PARENT 15 6 18 10
ROOT
ATOM      1  C   UNL     1       3.536   9.250  20.291  1.00  0.00     0.000 C 
ENDROOT
BRANCH   1   2
ATOM      2  C   UNL     1       4.128   9.116  21.699  1.00  0.00     0.003 C 
BRANCH   2   3
ATOM      3  C   UNL     1       4.158   7.672  22.211  1.00  0.00     0.032 C 
BRANCH   3   4
ATOM      4  C   UNL     1       3.484   7.504  23.584  1.00  0.00     0.117 C 
BRANCH   4   5
ATOM      5  O   UNL     1       4.312   8.171  24.544  1.00  0.00    -0.393 OA
ATOM      6  H   UNL     1       5.210   8.231  24.172  1.00  0.00     0.210 HD
ENDBRANCH   4   5
BRANCH   4   7
ATOM      7  C   UNL     1       3.321   6.034  24.002  1.00  0.00     0.067 C 
BRANCH   7   8
ATOM      8  C   UNL     1       2.359   5.780  25.175  1.00  0.00     0.154 C 
BRANCH   8   9
ATOM      9  O   UNL     1       2.907   6.350  26.366  1.00  0.00    -0.389 OA
ATOM     10  H   UNL     1       3.793   5.958  26.526  1.00  0.00     0.211 HD
ENDBRANCH   8   9
BRANCH   8  11
ATOM     11  C   UNL     1       1.869   4.330  25.359  1.00  0.00     0.264 C 
BRANCH  11  12
ATOM     12  O   UNL     1       0.445   4.164  25.367  1.00  0.00    -0.463 OA
BRANCH  12  13
ATOM     13  C   UNL     1      -0.209   4.457  24.215  1.00  0.00     0.302 C 
ATOM     14  O   UNL     1      -0.892   5.457  24.037  1.00  0.00    -0.253 OA
ATOM     15  C   UNL     1      -0.007   3.373  23.202  1.00  0.00     0.139 C 
ENDBRANCH  12  13
ENDBRANCH  11  12
ENDBRANCH   8  11
ENDBRANCH   7   8
ENDBRANCH   4   7
ENDBRANCH   3   4
ENDBRANCH   2   3
ENDBRANCH   1   2
BRANCH   1  16
ATOM     16  C   UNL     1       2.570   8.120  19.928  1.00  0.00     0.000 C 
BRANCH  16  17
ATOM     17  C   UNL     1       1.127   8.594  19.715  1.00  0.00     0.000 C 
BRANCH  17  18
ATOM     18  C   UNL     1       0.980   9.606  18.576  1.00  0.00     0.000 C 
BRANCH  18  19
ATOM     19  C   UNL     1       0.412  10.954  19.030  1.00  0.00     0.000 C 
BRANCH  19  20
ATOM     20  C   UNL     1      -0.921  11.366  18.396  1.00  0.00     0.000 C 
BRANCH  20  21
ATOM     21  C   UNL     1      -1.937  10.237  18.194  1.00  0.00     0.000 C 
BRANCH  21  22
ATOM     22  C   UNL     1      -2.291   9.428  19.446  1.00  0.00     0.004 C 
BRANCH  22  23
ATOM     23  C   UNL     1      -3.191   8.221  19.154  1.00  0.00     0.027 C 
BRANCH  23  24
ATOM     24  C   UNL     1      -3.546   7.350  20.331  1.00  0.00    -0.035 C 
ATOM     25  C   UNL     1      -2.715   6.634  21.099  1.00  0.00     0.004 C 
ENDBRANCH  23  24
ENDBRANCH  22  23
ENDBRANCH  21  22
ENDBRANCH  20  21
ENDBRANCH  19  20
ENDBRANCH  18  19
ENDBRANCH  17  18
ENDBRANCH  16  17
ENDBRANCH   1  16
TORSDOF 19
ENDMDL
MODEL 7
REMARK VINA RESULT:    -4.916      1.469      2.411
REMARK INTER + INTRA:         -12.095
REMARK INTER:                  -9.939
REMARK INTRA:                  -2.156
REMARK UNBOUND:                -2.006
REMARK SMILES C=CCCCCCCCCCCC[C@H](O)C[C@H](O)COC(C)=O
REMARK SMILES IDX 11 1 12 2 13 3 14 4 15 5 16 7 17 8 18 9 19 11 20 12 21 13
REMARK SMILES IDX 23 14 22 15 10 16 9 17 8 18 7 19 6 20 5 21 4 22 3 23 2 24
REMARK SMILES IDX 1 25
REMARK H PARENT 15 6 18 10
ROOT
ATOM      1  C   UNL     1       3.751   8.888  21.386  1.00  0.00     0.000 C 
ENDROOT
BRANCH   1   2
ATOM      2  C   UNL     1       3.173   9.347  20.042  1.00  0.00     0.003 C 
BRANCH   2   3
ATOM      3  C   UNL     1       1.953   8.534  19.596  1.00  0.00     0.032 C 
BRANCH   3   4
ATOM      4  C   UNL     1       0.888   9.385  18.884  1.00  0.00     0.117 C 
BRANCH   4   5
ATOM      5  O   UNL     1       1.364  10.736  18.876  1.00  0.00    -0.393 OA
ATOM      6  H   UNL     1       0.731  11.278  19.378  1.00  0.00     0.210 HD
ENDBRANCH   4   5
BRANCH   4   7
ATOM      7  C   UNL     1      -0.483   9.345  19.580  1.00  0.00     0.067 C 
BRANCH   7   8
ATOM      8  C   UNL     1      -1.687   9.716  18.698  1.00  0.00     0.154 C 
BRANCH   8   9
ATOM      9  O   UNL     1      -1.262   9.806  17.336  1.00  0.00    -0.389 OA
ATOM     10  H   UNL     1      -1.346  10.738  17.039  1.00  0.00     0.211 HD
ENDBRANCH   8   9
BRANCH   8  11
ATOM     11  C   UNL     1      -2.529  10.922  19.158  1.00  0.00     0.264 C 
BRANCH  11  12
ATOM     12  O   UNL     1      -1.779  12.100  19.485  1.00  0.00    -0.463 OA
BRANCH  12  13
ATOM     13  C   UNL     1      -1.398  12.885  18.446  1.00  0.00     0.302 C 
ATOM     14  O   UNL     1      -0.303  12.834  17.899  1.00  0.00    -0.253 OA
ATOM     15  C   UNL     1      -2.487  13.845  18.081  1.00  0.00     0.139 C 
ENDBRANCH  12  13
ENDBRANCH  11  12
ENDBRANCH   8  11
ENDBRANCH   7   8
ENDBRANCH   4   7
ENDBRANCH   3   4
ENDBRANCH   2   3
ENDBRANCH   1   2
BRANCH   1  16
ATOM     16  C   UNL     1       3.583   7.388  21.639  1.00  0.00     0.000 C 
BRANCH  16  17
ATOM     17  C   UNL     1       2.874   7.066  22.960  1.00  0.00     0.000 C 
BRANCH  17  18
ATOM     18  C   UNL     1       3.755   6.308  23.957  1.00  0.00     0.000 C 
BRANCH  18  19
ATOM     19  C   UNL     1       2.975   5.315  24.825  1.00  0.00     0.000 C 
BRANCH  19  20
ATOM     20  C   UNL     1       1.644   5.821  25.389  1.00  0.00     0.000 C 
BRANCH  20  21
ATOM     21  C   UNL     1       0.498   4.805  25.397  1.00  0.00     0.000 C 
BRANCH  21  22
ATOM     22  C   UNL     1      -0.820   5.283  24.778  1.00  0.00     0.004 C 
BRANCH  22  23
ATOM     23  C   UNL     1      -0.644   6.459  23.810  1.00  0.00     0.027 C 
BRANCH  23  24
ATOM     24  C   UNL     1      -0.626   6.121  22.342  1.00  0.00    -0.035 C 
ATOM     25  C   UNL     1      -1.598   6.323  21.443  1.00  0.00     0.004 C 
ENDBRANCH  23  24
ENDBRANCH  22  23
ENDBRANCH  21  22
ENDBRANCH  20  21
ENDBRANCH  19  20
ENDBRANCH  18  19
ENDBRANCH  17  18
ENDBRANCH  16  17
ENDBRANCH   1  16
TORSDOF 19
ENDMDL
MODEL 8
REMARK VINA RESULT:    -4.913      3.328      6.400
REMARK INTER + INTRA:         -12.089
REMARK INTER:                 -10.026
REMARK INTRA:                  -2.063
REMARK UNBOUND:                -2.006
REMARK SMILES C=CCCCCCCCCCCC[C@H](O)C[C@H](O)COC(C)=O
REMARK SMILES IDX 11 1 12 2 13 3 14 4 15 5 16 7 17 8 18 9 19 11 20 12 21 13
REMARK SMILES IDX 23 14 22 15 10 16 9 17 8 18 7 19 6 20 5 21 4 22 3 23 2 24
REMARK SMILES IDX 1 25
REMARK H PARENT 15 6 18 10
ROOT
ATOM      1  C   UNL     1      -0.173   5.841  21.546  1.00  0.00     0.000 C 
ENDROOT
BRANCH   1   2
ATOM      2  C   UNL     1       1.048   6.631  22.032  1.00  0.00     0.003 C 
BRANCH   2   3
ATOM      3  C   UNL     1       1.702   7.476  20.934  1.00  0.00     0.032 C 
BRANCH   3   4
ATOM      4  C   UNL     1       3.000   8.162  21.393  1.00  0.00     0.117 C 
BRANCH   4   5
ATOM      5  O   UNL     1       3.713   8.547  20.212  1.00  0.00    -0.393 OA
ATOM      6  H   UNL     1       3.072   8.933  19.590  1.00  0.00     0.210 HD
ENDBRANCH   4   5
BRANCH   4   7
ATOM      7  C   UNL     1       3.899   7.249  22.242  1.00  0.00     0.067 C 
BRANCH   7   8
ATOM      8  C   UNL     1       3.994   7.613  23.734  1.00  0.00     0.154 C 
BRANCH   8   9
ATOM      9  O   UNL     1       5.352   7.917  24.059  1.00  0.00    -0.389 OA
ATOM     10  H   UNL     1       5.645   7.325  24.785  1.00  0.00     0.211 HD
ENDBRANCH   8   9
BRANCH   8  11
ATOM     11  C   UNL     1       3.332   6.632  24.722  1.00  0.00     0.264 C 
BRANCH  11  12
ATOM     12  O   UNL     1       3.647   5.249  24.513  1.00  0.00    -0.463 OA
BRANCH  12  13
ATOM     13  C   UNL     1       2.911   4.346  25.208  1.00  0.00     0.302 C 
ATOM     14  O   UNL     1       3.314   3.246  25.564  1.00  0.00    -0.253 OA
ATOM     15  C   UNL     1       1.528   4.864  25.449  1.00  0.00     0.139 C 
ENDBRANCH  12  13
ENDBRANCH  11  12
ENDBRANCH   8  11
ENDBRANCH   7   8
ENDBRANCH   4   7
ENDBRANCH   3   4
ENDBRANCH   2   3
ENDBRANCH   1   2
BRANCH   1  16
ATOM     16  C   UNL     1      -1.499   6.572  21.773  1.00  0.00     0.000 C 
BRANCH  16  17
ATOM     17  C   UNL     1      -2.731   5.689  21.538  1.00  0.00     0.000 C 
BRANCH  17  18
ATOM     18  C   UNL     1      -3.692   5.655  22.730  1.00  0.00     0.000 C 
BRANCH  18  19
ATOM     19  C   UNL     1      -3.429   4.490  23.690  1.00  0.00     0.000 C 
BRANCH  19  20
ATOM     20  C   UNL     1      -2.099   4.535  24.448  1.00  0.00     0.000 C 
BRANCH  20  21
ATOM     21  C   UNL     1      -2.208   4.623  25.974  1.00  0.00     0.000 C 
BRANCH  21  22
ATOM     22  C   UNL     1      -1.772   5.954  26.597  1.00  0.00     0.004 C 
BRANCH  22  23
ATOM     23  C   UNL     1      -1.810   7.126  25.610  1.00  0.00     0.027 C 
BRANCH  23  24
ATOM     24  C   UNL     1      -3.091   7.918  25.558  1.00  0.00    -0.035 C 
ATOM     25  C   UNL     1      -3.411   8.902  24.709  1.00  0.00     0.004 C 
ENDBRANCH  23  24
ENDBRANCH  22  23
ENDBRANCH  21  22
ENDBRANCH  20  21
ENDBRANCH  19  20
ENDBRANCH  18  19
ENDBRANCH  17  18
ENDBRANCH  16  17
ENDBRANCH   1  16
TORSDOF 19
ENDMDL
MODEL 9
REMARK VINA RESULT:    -4.890      4.848      7.753
REMARK INTER + INTRA:         -12.041
REMARK INTER:                 -10.481
REMARK INTRA:                  -1.560
REMARK UNBOUND:                -2.006
REMARK SMILES C=CCCCCCCCCCCC[C@H](O)C[C@H](O)COC(C)=O
REMARK SMILES IDX 11 1 12 2 13 3 14 4 15 5 16 7 17 8 18 9 19 11 20 12 21 13
REMARK SMILES IDX 23 14 22 15 10 16 9 17 8 18 7 19 6 20 5 21 4 22 3 23 2 24
REMARK SMILES IDX 1 25
REMARK H PARENT 15 6 18 10
ROOT
ATOM      1  C   UNL     1      -0.067   4.761  22.426  1.00  0.00     0.000 C 
ENDROOT
BRANCH   1   2
ATOM      2  C   UNL     1      -0.464   3.282  22.517  1.00  0.00     0.003 C 
BRANCH   2   3
ATOM      3  C   UNL     1      -1.135   2.913  23.844  1.00  0.00     0.032 C 
BRANCH   3   4
ATOM      4  C   UNL     1      -0.134   2.462  24.922  1.00  0.00     0.117 C 
BRANCH   4   5
ATOM      5  O   UNL     1      -0.899   2.051  26.061  1.00  0.00    -0.393 OA
ATOM      6  H   UNL     1      -1.242   2.853  26.494  1.00  0.00     0.210 HD
ENDBRANCH   4   5
BRANCH   4   7
ATOM      7  C   UNL     1       0.838   3.574  25.349  1.00  0.00     0.067 C 
BRANCH   7   8
ATOM      8  C   UNL     1       2.330   3.203  25.307  1.00  0.00     0.154 C 
BRANCH   8   9
ATOM      9  O   UNL     1       2.609   2.257  26.342  1.00  0.00    -0.389 OA
ATOM     10  H   UNL     1       2.055   1.460  26.200  1.00  0.00     0.211 HD
ENDBRANCH   8   9
BRANCH   8  11
ATOM     11  C   UNL     1       3.328   4.378  25.264  1.00  0.00     0.264 C 
BRANCH  11  12
ATOM     12  O   UNL     1       3.332   5.130  24.044  1.00  0.00    -0.463 OA
BRANCH  12  13
ATOM     13  C   UNL     1       3.275   6.480  24.162  1.00  0.00     0.302 C 
ATOM     14  O   UNL     1       2.941   7.077  25.179  1.00  0.00    -0.253 OA
ATOM     15  C   UNL     1       3.643   7.141  22.871  1.00  0.00     0.139 C 
ENDBRANCH  12  13
ENDBRANCH  11  12
ENDBRANCH   8  11
ENDBRANCH   7   8
ENDBRANCH   4   7
ENDBRANCH   3   4
ENDBRANCH   2   3
ENDBRANCH   1   2
BRANCH   1  16
ATOM     16  C   UNL     1      -1.141   5.638  21.776  1.00  0.00     0.000 C 
BRANCH  16  17
ATOM     17  C   UNL     1      -1.720   6.696  22.723  1.00  0.00     0.000 C 
BRANCH  17  18
ATOM     18  C   UNL     1      -1.097   6.669  24.122  1.00  0.00     0.000 C 
BRANCH  18  19
ATOM     19  C   UNL     1      -2.134   6.677  25.249  1.00  0.00     0.000 C 
BRANCH  19  20
ATOM     20  C   UNL     1      -1.987   5.574  26.301  1.00  0.00     0.000 C 
BRANCH  20  21
ATOM     21  C   UNL     1      -2.609   5.874  27.669  1.00  0.00     0.000 C 
BRANCH  21  22
ATOM     22  C   UNL     1      -3.440   4.743  28.285  1.00  0.00     0.004 C 
BRANCH  22  23
ATOM     23  C   UNL     1      -4.619   5.246  29.128  1.00  0.00     0.027 C 
BRANCH  23  24
ATOM     24  C   UNL     1      -4.853   6.735  29.131  1.00  0.00    -0.035 C 
ATOM     25  C   UNL     1      -5.914   7.395  29.611  1.00  0.00     0.004 C 
ENDBRANCH  23  24
ENDBRANCH  22  23
ENDBRANCH  21  22
ENDBRANCH  20  21
ENDBRANCH  19  20
ENDBRANCH  18  19
ENDBRANCH  17  18
ENDBRANCH  16  17
ENDBRANCH   1  16
TORSDOF 19
ENDMDL
