MODEL 1
REMARK VINA RESULT:    -4.726      0.000      0.000
REMARK INTER + INTRA:         -12.193
REMARK INTER:                  -9.699
REMARK INTRA:                  -2.494
REMARK UNBOUND:                -2.494
REMARK SMILES C=CCCCCCCCCCCC[C@H](O)C[C@H](O)COC(C)=O
REMARK SMILES IDX 11 1 12 2 13 3 14 4 15 5 16 7 17 8 18 9 19 11 20 12 21 13
REMARK SMILES IDX 23 14 22 15 10 16 9 17 8 18 7 19 6 20 5 21 4 22 3 23 2 24
REMARK SMILES IDX 1 25
REMARK H PARENT 15 6 18 10
ROOT
ATOM      1  C   UNL     1      -4.737   4.369  -2.664  1.00  0.00     0.000 C 
ENDROOT
BRANCH   1   2
ATOM      2  C   UNL     1      -5.261   3.888  -1.306  1.00  0.00     0.003 C 
BRANCH   2   3
ATOM      3  C   UNL     1      -5.251   2.364  -1.154  1.00  0.00     0.032 C 
BRANCH   3   4
ATOM      4  C   UNL     1      -4.268   1.871  -0.078  1.00  0.00     0.117 C 
BRANCH   4   5
ATOM      5  O   UNL     1      -4.927   0.827   0.647  1.00  0.00    -0.393 OA
ATOM      6  H   UNL     1      -5.637   1.233   1.175  1.00  0.00     0.210 HD
ENDBRANCH   4   5
BRANCH   4   7
ATOM      7  C   UNL     1      -3.847   2.973   0.907  1.00  0.00     0.067 C 
BRANCH   7   8
ATOM      8  C   UNL     1      -2.331   3.182   1.061  1.00  0.00     0.154 C 
BRANCH   8   9
ATOM      9  O   UNL     1      -1.893   4.165   0.120  1.00  0.00    -0.389 OA
ATOM     10  H   UNL     1      -2.134   5.055   0.456  1.00  0.00     0.211 HD
ENDBRANCH   8   9
BRANCH   8  11
ATOM     11  C   UNL     1      -1.461   1.909   1.068  1.00  0.00     0.264 C 
BRANCH  11  12
ATOM     12  O   UNL     1      -0.388   1.898   0.117  1.00  0.00    -0.463 OA
BRANCH  12  13
ATOM     13  C   UNL     1      -0.458   0.968  -0.868  1.00  0.00     0.302 C 
ATOM     14  O   UNL     1      -1.414   0.225  -1.058  1.00  0.00    -0.253 OA
ATOM     15  C   UNL     1       0.806   0.950  -1.670  1.00  0.00     0.139 C 
ENDBRANCH  12  13
ENDBRANCH  11  12
ENDBRANCH   8  11
ENDBRANCH   7   8
ENDBRANCH   4   7
ENDBRANCH   3   4
ENDBRANCH   2   3
ENDBRANCH   1   2
BRANCH   1  16
ATOM     16  C   UNL     1      -5.763   5.180  -3.459  1.00  0.00     0.000 C 
BRANCH  16  17
ATOM     17  C   UNL     1      -6.195   4.504  -4.767  1.00  0.00     0.000 C 
BRANCH  17  18
ATOM     18  C   UNL     1      -6.809   3.116  -4.562  1.00  0.00     0.000 C 
BRANCH  18  19
ATOM     19  C   UNL     1      -6.270   2.064  -5.536  1.00  0.00     0.000 C 
BRANCH  19  20
ATOM     20  C   UNL     1      -5.773   0.760  -4.905  1.00  0.00     0.000 C 
BRANCH  20  21
ATOM     21  C   UNL     1      -4.329   0.779  -4.392  1.00  0.00     0.000 C 
BRANCH  21  22
ATOM     22  C   UNL     1      -3.404   1.810  -5.048  1.00  0.00     0.004 C 
BRANCH  22  23
ATOM     23  C   UNL     1      -2.134   2.088  -4.235  1.00  0.00     0.027 C 
BRANCH  23  24
ATOM     24  C   UNL     1      -0.824   1.762  -4.905  1.00  0.00    -0.035 C 
ATOM     25  C   UNL     1       0.159   2.608  -5.236  1.00  0.00     0.004 C 
ENDBRANCH  23  24
ENDBRANCH  22  23
ENDBRANCH  21  22
ENDBRANCH  20  21
ENDBRANCH  19  20
ENDBRANCH  18  19
ENDBRANCH  17  18
ENDBRANCH  16  17
ENDBRANCH   1  16
TORSDOF 19
ENDMDL
MODEL 2
REMARK VINA RESULT:    -4.671      2.105      3.659
REMARK INTER + INTRA:         -12.081
REMARK INTER:                  -9.743
REMARK INTRA:                  -2.337
REMARK UNBOUND:                -2.494
REMARK SMILES C=CCCCCCCCCCCC[C@H](O)C[C@H](O)COC(C)=O
REMARK SMILES IDX 11 1 12 2 13 3 14 4 15 5 16 7 17 8 18 9 19 11 20 12 21 13
REMARK SMILES IDX 23 14 22 15 10 16 9 17 8 18 7 19 6 20 5 21 4 22 3 23 2 24
REMARK SMILES IDX 1 25
REMARK H PARENT 15 6 18 10
ROOT
ATOM      1  C   UNL     1      -5.694   4.073  -4.766  1.00  0.00     0.000 C 
ENDROOT
BRANCH   1   2
ATOM      2  C   UNL     1      -5.844   4.914  -3.492  1.00  0.00     0.003 C 
BRANCH   2   3
ATOM      3  C   UNL     1      -4.581   4.936  -2.626  1.00  0.00     0.032 C 
BRANCH   3   4
ATOM      4  C   UNL     1      -4.695   4.055  -1.370  1.00  0.00     0.117 C 
BRANCH   4   5
ATOM      5  O   UNL     1      -4.755   4.936  -0.242  1.00  0.00    -0.393 OA
ATOM      6  H   UNL     1      -3.864   5.302  -0.102  1.00  0.00     0.210 HD
ENDBRANCH   4   5
BRANCH   4   7
ATOM      7  C   UNL     1      -3.505   3.098  -1.192  1.00  0.00     0.067 C 
BRANCH   7   8
ATOM      8  C   UNL     1      -2.650   3.328   0.065  1.00  0.00     0.154 C 
BRANCH   8   9
ATOM      9  O   UNL     1      -1.935   4.558  -0.070  1.00  0.00    -0.389 OA
ATOM     10  H   UNL     1      -2.482   5.284   0.300  1.00  0.00     0.211 HD
ENDBRANCH   8   9
BRANCH   8  11
ATOM     11  C   UNL     1      -1.764   2.150   0.517  1.00  0.00     0.264 C 
BRANCH  11  12
ATOM     12  O   UNL     1      -0.568   1.957  -0.250  1.00  0.00    -0.463 OA
BRANCH  12  13
ATOM     13  C   UNL     1      -0.493   0.818  -0.984  1.00  0.00     0.302 C 
ATOM     14  O   UNL     1      -0.480  -0.313  -0.514  1.00  0.00    -0.253 OA
ATOM     15  C   UNL     1      -0.394   1.134  -2.443  1.00  0.00     0.139 C 
ENDBRANCH  12  13
ENDBRANCH  11  12
ENDBRANCH   8  11
ENDBRANCH   7   8
ENDBRANCH   4   7
ENDBRANCH   3   4
ENDBRANCH   2   3
ENDBRANCH   1   2
BRANCH   1  16
ATOM     16  C   UNL     1      -6.202   2.638  -4.609  1.00  0.00     0.000 C 
BRANCH  16  17
ATOM     17  C   UNL     1      -5.099   1.634  -4.250  1.00  0.00     0.000 C 
BRANCH  17  18
ATOM     18  C   UNL     1      -3.736   1.985  -4.854  1.00  0.00     0.000 C 
BRANCH  18  19
ATOM     19  C   UNL     1      -3.051   0.798  -5.538  1.00  0.00     0.000 C 
BRANCH  19  20
ATOM     20  C   UNL     1      -2.876   0.910  -7.056  1.00  0.00     0.000 C 
BRANCH  20  21
ATOM     21  C   UNL     1      -3.684   2.019  -7.737  1.00  0.00     0.000 C 
BRANCH  21  22
ATOM     22  C   UNL     1      -5.018   1.586  -8.356  1.00  0.00     0.004 C 
BRANCH  22  23
ATOM     23  C   UNL     1      -6.026   2.734  -8.487  1.00  0.00     0.027 C 
BRANCH  23  24
ATOM     24  C   UNL     1      -6.213   3.307  -9.868  1.00  0.00    -0.035 C 
ATOM     25  C   UNL     1      -7.252   4.017 -10.325  1.00  0.00     0.004 C 
ENDBRANCH  23  24
ENDBRANCH  22  23
ENDBRANCH  21  22
ENDBRANCH  20  21
ENDBRANCH  19  20
ENDBRANCH  18  19
ENDBRANCH  17  18
ENDBRANCH  16  17
ENDBRANCH   1  16
TORSDOF 19
ENDMDL
MODEL 3
REMARK VINA RESULT:    -4.646      2.235      5.694
REMARK INTER + INTRA:         -12.029
REMARK INTER:                  -9.761
REMARK INTRA:                  -2.268
REMARK UNBOUND:                -2.494
REMARK SMILES C=CCCCCCCCCCCC[C@H](O)C[C@H](O)COC(C)=O
REMARK SMILES IDX 11 1 12 2 13 3 14 4 15 5 16 7 17 8 18 9 19 11 20 12 21 13
REMARK SMILES IDX 23 14 22 15 10 16 9 17 8 18 7 19 6 20 5 21 4 22 3 23 2 24
REMARK SMILES IDX 1 25
REMARK H PARENT 15 6 18 10
ROOT
ATOM      1  C   UNL     1      -1.070   1.772  -0.416  1.00  0.00     0.000 C 
ENDROOT
BRANCH   1   2
ATOM      2  C   UNL     1      -1.588   1.862   1.024  1.00  0.00     0.003 C 
BRANCH   2   3
ATOM      3  C   UNL     1      -3.112   1.756   1.131  1.00  0.00     0.032 C 
BRANCH   3   4
ATOM      4  C   UNL     1      -3.828   3.100   0.909  1.00  0.00     0.117 C 
BRANCH   4   5
ATOM      5  O   UNL     1      -4.250   3.570   2.194  1.00  0.00    -0.393 OA
ATOM      6  H   UNL     1      -5.187   3.329   2.306  1.00  0.00     0.210 HD
ENDBRANCH   4   5
BRANCH   4   7
ATOM      7  C   UNL     1      -5.056   2.987  -0.009  1.00  0.00     0.067 C 
BRANCH   7   8
ATOM      8  C   UNL     1      -5.180   4.075  -1.090  1.00  0.00     0.154 C 
BRANCH   8   9
ATOM      9  O   UNL     1      -4.703   5.315  -0.565  1.00  0.00    -0.389 OA
ATOM     10  H   UNL     1      -4.789   5.300   0.413  1.00  0.00     0.211 HD
ENDBRANCH   8   9
BRANCH   8  11
ATOM     11  C   UNL     1      -6.547   4.191  -1.792  1.00  0.00     0.264 C 
BRANCH  11  12
ATOM     12  O   UNL     1      -6.493   4.269  -3.223  1.00  0.00    -0.463 OA
BRANCH  12  13
ATOM     13  C   UNL     1      -6.419   5.513  -3.761  1.00  0.00     0.302 C 
ATOM     14  O   UNL     1      -5.399   6.013  -4.220  1.00  0.00    -0.253 OA
ATOM     15  C   UNL     1      -7.745   6.202  -3.686  1.00  0.00     0.139 C 
ENDBRANCH  12  13
ENDBRANCH  11  12
ENDBRANCH   8  11
ENDBRANCH   7   8
ENDBRANCH   4   7
ENDBRANCH   3   4
ENDBRANCH   2   3
ENDBRANCH   1   2
BRANCH   1  16
ATOM     16  C   UNL     1      -0.490   0.400  -0.769  1.00  0.00     0.000 C 
BRANCH  16  17
ATOM     17  C   UNL     1       0.843   0.476  -1.523  1.00  0.00     0.000 C 
BRANCH  17  18
ATOM     18  C   UNL     1       0.723   1.115  -2.910  1.00  0.00     0.000 C 
BRANCH  18  19
ATOM     19  C   UNL     1       0.310   0.123  -4.002  1.00  0.00     0.000 C 
BRANCH  19  20
ATOM     20  C   UNL     1      -1.073   0.346  -4.621  1.00  0.00     0.000 C 
BRANCH  20  21
ATOM     21  C   UNL     1      -1.358   1.770  -5.112  1.00  0.00     0.000 C 
BRANCH  21  22
ATOM     22  C   UNL     1      -2.836   2.174  -5.160  1.00  0.00     0.004 C 
BRANCH  22  23
ATOM     23  C   UNL     1      -3.459   2.362  -3.771  1.00  0.00     0.027 C 
BRANCH  23  24
ATOM     24  C   UNL     1      -4.218   1.186  -3.213  1.00  0.00    -0.035 C 
ATOM     25  C   UNL     1      -3.814   0.321  -2.274  1.00  0.00     0.004 C 
ENDBRANCH  23  24
ENDBRANCH  22  23
ENDBRANCH  21  22
ENDBRANCH  20  21
ENDBRANCH  19  20
ENDBRANCH  18  19
ENDBRANCH  17  18
ENDBRANCH  16  17
ENDBRANCH   1  16
TORSDOF 19
ENDMDL
MODEL 4
REMARK VINA RESULT:    -4.631      1.634      2.290
REMARK INTER + INTRA:         -11.997
REMARK INTER:                  -9.119
REMARK INTRA:                  -2.879
REMARK UNBOUND:                -2.494
REMARK SMILES C=CCCCCCCCCCCC[C@H](O)C[C@H](O)COC(C)=O
REMARK SMILES IDX 11 1 12 2 13 3 14 4 15 5 16 7 17 8 18 9 19 11 20 12 21 13
REMARK SMILES IDX 23 14 22 15 10 16 9 17 8 18 7 19 6 20 5 21 4 22 3 23 2 24
REMARK SMILES IDX 1 25
REMARK H PARENT 15 6 18 10
ROOT
ATOM      1  C   UNL     1      -5.030   3.737  -3.420  1.00  0.00     0.000 C 
ENDROOT
BRANCH   1   2
ATOM      2  C   UNL     1      -4.910   3.233  -1.977  1.00  0.00     0.003 C 
BRANCH   2   3
ATOM      3  C   UNL     1      -4.155   4.197  -1.057  1.00  0.00     0.032 C 
BRANCH   3   4
ATOM      4  C   UNL     1      -3.010   3.521  -0.283  1.00  0.00     0.117 C 
BRANCH   4   5
ATOM      5  O   UNL     1      -2.011   4.520  -0.052  1.00  0.00    -0.393 OA
ATOM      6  H   UNL     1      -1.731   4.867  -0.917  1.00  0.00     0.210 HD
ENDBRANCH   4   5
BRANCH   4   7
ATOM      7  C   UNL     1      -2.375   2.347  -1.046  1.00  0.00     0.067 C 
BRANCH   7   8
ATOM      8  C   UNL     1      -1.516   1.392  -0.199  1.00  0.00     0.154 C 
BRANCH   8   9
ATOM      9  O   UNL     1      -0.510   2.144   0.483  1.00  0.00    -0.389 OA
ATOM     10  H   UNL     1      -0.429   1.806   1.401  1.00  0.00     0.211 HD
ENDBRANCH   8   9
BRANCH   8  11
ATOM     11  C   UNL     1      -0.967   0.144  -0.918  1.00  0.00     0.264 C 
BRANCH  11  12
ATOM     12  O   UNL     1      -0.563   0.351  -2.278  1.00  0.00    -0.463 OA
BRANCH  12  13
ATOM     13  C   UNL     1       0.757   0.587  -2.490  1.00  0.00     0.302 C 
ATOM     14  O   UNL     1       1.528   1.034  -1.651  1.00  0.00    -0.253 OA
ATOM     15  C   UNL     1       1.133   0.257  -3.901  1.00  0.00     0.139 C 
ENDBRANCH  12  13
ENDBRANCH  11  12
ENDBRANCH   8  11
ENDBRANCH   7   8
ENDBRANCH   4   7
ENDBRANCH   3   4
ENDBRANCH   2   3
ENDBRANCH   1   2
BRANCH   1  16
ATOM     16  C   UNL     1      -6.475   3.979  -3.861  1.00  0.00     0.000 C 
BRANCH  16  17
ATOM     17  C   UNL     1      -6.936   3.043  -4.985  1.00  0.00     0.000 C 
BRANCH  17  18
ATOM     18  C   UNL     1      -6.079   3.142  -6.251  1.00  0.00     0.000 C 
BRANCH  18  19
ATOM     19  C   UNL     1      -5.799   1.784  -6.903  1.00  0.00     0.000 C 
BRANCH  19  20
ATOM     20  C   UNL     1      -6.295   0.557  -6.132  1.00  0.00     0.000 C 
BRANCH  20  21
ATOM     21  C   UNL     1      -5.204  -0.316  -5.501  1.00  0.00     0.000 C 
BRANCH  21  22
ATOM     22  C   UNL     1      -4.636   0.187  -4.170  1.00  0.00     0.004 C 
BRANCH  22  23
ATOM     23  C   UNL     1      -3.138   0.511  -4.234  1.00  0.00     0.027 C 
BRANCH  23  24
ATOM     24  C   UNL     1      -2.591   0.888  -5.587  1.00  0.00    -0.035 C 
ATOM     25  C   UNL     1      -2.104   2.075  -5.970  1.00  0.00     0.004 C 
ENDBRANCH  23  24
ENDBRANCH  22  23
ENDBRANCH  21  22
ENDBRANCH  20  21
ENDBRANCH  19  20
ENDBRANCH  18  19
ENDBRANCH  17  18
ENDBRANCH  16  17
ENDBRANCH   1  16
TORSDOF 19
ENDMDL
MODEL 5
REMARK VINA RESULT:    -4.600      4.157      7.200
REMARK INTER + INTRA:         -11.934
REMARK INTER:                  -9.931
REMARK INTRA:                  -2.003
REMARK UNBOUND:                -2.494
REMARK SMILES C=CCCCCCCCCCCC[C@H](O)C[C@H](O)COC(C)=O
REMARK SMILES IDX 11 1 12 2 13 3 14 4 15 5 16 7 17 8 18 9 19 11 20 12 21 13
REMARK SMILES IDX 23 14 22 15 10 16 9 17 8 18 7 19 6 20 5 21 4 22 3 23 2 24
REMARK SMILES IDX 1 25
REMARK H PARENT 15 6 18 10
ROOT
ATOM      1  C   UNL     1      -0.203  -0.577  -1.176  1.00  0.00     0.000 C 
ENDROOT
BRANCH   1   2
ATOM      2  C   UNL     1      -0.118   0.953  -1.116  1.00  0.00     0.003 C 
BRANCH   2   3
ATOM      3  C   UNL     1      -0.964   1.566   0.005  1.00  0.00     0.032 C 
BRANCH   3   4
ATOM      4  C   UNL     1      -1.973   2.610  -0.503  1.00  0.00     0.117 C 
BRANCH   4   5
ATOM      5  O   UNL     1      -1.917   3.723   0.396  1.00  0.00    -0.393 OA
ATOM      6  H   UNL     1      -2.489   4.424   0.039  1.00  0.00     0.210 HD
ENDBRANCH   4   5
BRANCH   4   7
ATOM      7  C   UNL     1      -3.416   2.082  -0.553  1.00  0.00     0.067 C 
BRANCH   7   8
ATOM      8  C   UNL     1      -3.812   1.355  -1.850  1.00  0.00     0.154 C 
BRANCH   8   9
ATOM      9  O   UNL     1      -3.768  -0.056  -1.631  1.00  0.00    -0.389 OA
ATOM     10  H   UNL     1      -4.678  -0.417  -1.702  1.00  0.00     0.211 HD
ENDBRANCH   8   9
BRANCH   8  11
ATOM     11  C   UNL     1      -3.085   1.800  -3.135  1.00  0.00     0.264 C 
BRANCH  11  12
ATOM     12  O   UNL     1      -2.984   0.799  -4.156  1.00  0.00    -0.463 OA
BRANCH  12  13
ATOM     13  C   UNL     1      -1.733   0.391  -4.487  1.00  0.00     0.302 C 
ATOM     14  O   UNL     1      -1.381  -0.779  -4.569  1.00  0.00    -0.253 OA
ATOM     15  C   UNL     1      -0.834   1.568  -4.705  1.00  0.00     0.139 C 
ENDBRANCH  12  13
ENDBRANCH  11  12
ENDBRANCH   8  11
ENDBRANCH   7   8
ENDBRANCH   4   7
ENDBRANCH   3   4
ENDBRANCH   2   3
ENDBRANCH   1   2
BRANCH   1  16
ATOM     16  C   UNL     1       1.140  -1.249  -1.471  1.00  0.00     0.000 C 
BRANCH  16  17
ATOM     17  C   UNL     1       1.696  -0.919  -2.862  1.00  0.00     0.000 C 
BRANCH  17  18
ATOM     18  C   UNL     1       2.427  -2.092  -3.520  1.00  0.00     0.000 C 
BRANCH  18  19
ATOM     19  C   UNL     1       1.519  -2.957  -4.401  1.00  0.00     0.000 C 
BRANCH  19  20
ATOM     20  C   UNL     1       2.229  -3.828  -5.442  1.00  0.00     0.000 C 
BRANCH  20  21
ATOM     21  C   UNL     1       3.567  -4.431  -5.001  1.00  0.00     0.000 C 
BRANCH  21  22
ATOM     22  C   UNL     1       3.532  -5.912  -4.608  1.00  0.00     0.004 C 
BRANCH  22  23
ATOM     23  C   UNL     1       3.350  -6.136  -3.102  1.00  0.00     0.027 C 
BRANCH  23  24
ATOM     24  C   UNL     1       3.983  -5.115  -2.192  1.00  0.00    -0.035 C 
ATOM     25  C   UNL     1       3.748  -4.924  -0.888  1.00  0.00     0.004 C 
ENDBRANCH  23  24
ENDBRANCH  22  23
ENDBRANCH  21  22
ENDBRANCH  20  21
ENDBRANCH  19  20
ENDBRANCH  18  19
ENDBRANCH  17  18
ENDBRANCH  16  17
ENDBRANCH   1  16
TORSDOF 19
ENDMDL
MODEL 6
REMARK VINA RESULT:    -4.576      5.395      8.436
REMARK INTER + INTRA:         -11.885
REMARK INTER:                 -10.284
REMARK INTRA:                  -1.601
REMARK UNBOUND:                -2.494
REMARK SMILES C=CCCCCCCCCCCC[C@H](O)C[C@H](O)COC(C)=O
REMARK SMILES IDX 11 1 12 2 13 3 14 4 15 5 16 7 17 8 18 9 19 11 20 12 21 13
REMARK SMILES IDX 23 14 22 15 10 16 9 17 8 18 7 19 6 20 5 21 4 22 3 23 2 24
REMARK SMILES IDX 1 25
REMARK H PARENT 15 6 18 10
ROOT
ATOM      1  C   UNL     1       2.180  -2.373  -2.682  1.00  0.00     0.000 C 
ENDROOT
BRANCH   1   2
ATOM      2  C   UNL     1       1.874  -0.877  -2.817  1.00  0.00     0.003 C 
BRANCH   2   3
ATOM      3  C   UNL     1       1.105  -0.526  -4.094  1.00  0.00     0.032 C 
BRANCH   3   4
ATOM      4  C   UNL     1       0.106   0.628  -3.900  1.00  0.00     0.117 C 
BRANCH   4   5
ATOM      5  O   UNL     1       0.466   1.296  -2.686  1.00  0.00    -0.393 OA
ATOM      6  H   UNL     1      -0.073   0.921  -1.968  1.00  0.00     0.210 HD
ENDBRANCH   4   5
BRANCH   4   7
ATOM      7  C   UNL     1      -1.353   0.153  -3.794  1.00  0.00     0.067 C 
BRANCH   7   8
ATOM      8  C   UNL     1      -1.885  -0.042  -2.364  1.00  0.00     0.154 C 
BRANCH   8   9
ATOM      9  O   UNL     1      -2.471  -1.340  -2.252  1.00  0.00    -0.389 OA
ATOM     10  H   UNL     1      -3.204  -1.302  -1.601  1.00  0.00     0.211 HD
ENDBRANCH   8   9
BRANCH   8  11
ATOM     11  C   UNL     1      -2.778   1.084  -1.806  1.00  0.00     0.264 C 
BRANCH  11  12
ATOM     12  O   UNL     1      -2.085   2.281  -1.426  1.00  0.00    -0.463 OA
BRANCH  12  13
ATOM     13  C   UNL     1      -1.579   2.317  -0.168  1.00  0.00     0.302 C 
ATOM     14  O   UNL     1      -0.455   1.943   0.141  1.00  0.00    -0.253 OA
ATOM     15  C   UNL     1      -2.595   2.845   0.796  1.00  0.00     0.139 C 
ENDBRANCH  12  13
ENDBRANCH  11  12
ENDBRANCH   8  11
ENDBRANCH   7   8
ENDBRANCH   4   7
ENDBRANCH   3   4
ENDBRANCH   2   3
ENDBRANCH   1   2
BRANCH   1  16
ATOM     16  C   UNL     1       2.067  -3.138  -4.003  1.00  0.00     0.000 C 
BRANCH  16  17
ATOM     17  C   UNL     1       1.261  -4.438  -3.891  1.00  0.00     0.000 C 
BRANCH  17  18
ATOM     18  C   UNL     1       2.137  -5.692  -3.810  1.00  0.00     0.000 C 
BRANCH  18  19
ATOM     19  C   UNL     1       3.604  -5.433  -4.167  1.00  0.00     0.000 C 
BRANCH  19  20
ATOM     20  C   UNL     1       4.024  -5.815  -5.589  1.00  0.00     0.000 C 
BRANCH  20  21
ATOM     21  C   UNL     1       4.595  -4.677  -6.441  1.00  0.00     0.000 C 
BRANCH  21  22
ATOM     22  C   UNL     1       3.683  -4.161  -7.560  1.00  0.00     0.004 C 
BRANCH  22  23
ATOM     23  C   UNL     1       3.630  -5.092  -8.777  1.00  0.00     0.027 C 
BRANCH  23  24
ATOM     24  C   UNL     1       2.761  -4.646  -9.924  1.00  0.00    -0.035 C 
ATOM     25  C   UNL     1       1.469  -4.930 -10.131  1.00  0.00     0.004 C 
ENDBRANCH  23  24
ENDBRANCH  22  23
ENDBRANCH  21  22
ENDBRANCH  20  21
ENDBRANCH  19  20
ENDBRANCH  18  19
ENDBRANCH  17  18
ENDBRANCH  16  17
ENDBRANCH   1  16
TORSDOF 19
ENDMDL
MODEL 7
REMARK VINA RESULT:    -4.556      6.446      8.982
REMARK INTER + INTRA:         -11.843
REMARK INTER:                  -9.437
REMARK INTRA:                  -2.406
REMARK UNBOUND:                -2.494
REMARK SMILES C=CCCCCCCCCCCC[C@H](O)C[C@H](O)COC(C)=O
REMARK SMILES IDX 11 1 12 2 13 3 14 4 15 5 16 7 17 8 18 9 19 11 20 12 21 13
REMARK SMILES IDX 23 14 22 15 10 16 9 17 8 18 7 19 6 20 5 21 4 22 3 23 2 24
REMARK SMILES IDX 1 25
REMARK H PARENT 15 6 18 10
ROOT
ATOM      1  C   UNL     1     -11.567   6.723  -1.711  1.00  0.00     0.000 C 
ENDROOT
BRANCH   1   2
ATOM      2  C   UNL     1     -10.680   5.510  -2.013  1.00  0.00     0.003 C 
BRANCH   2   3
ATOM      3  C   UNL     1      -9.186   5.782  -1.811  1.00  0.00     0.032 C 
BRANCH   3   4
ATOM      4  C   UNL     1      -8.385   4.520  -1.451  1.00  0.00     0.117 C 
BRANCH   4   5
ATOM      5  O   UNL     1      -8.770   3.498  -2.377  1.00  0.00    -0.393 OA
ATOM      6  H   UNL     1      -9.596   3.782  -2.807  1.00  0.00     0.210 HD
ENDBRANCH   4   5
BRANCH   4   7
ATOM      7  C   UNL     1      -8.652   4.022  -0.020  1.00  0.00     0.067 C 
BRANCH   7   8
ATOM      8  C   UNL     1      -7.967   4.824   1.100  1.00  0.00     0.154 C 
BRANCH   8   9
ATOM      9  O   UNL     1      -6.744   4.179   1.460  1.00  0.00    -0.389 OA
ATOM     10  H   UNL     1      -6.162   4.830   1.908  1.00  0.00     0.211 HD
ENDBRANCH   8   9
BRANCH   8  11
ATOM     11  C   UNL     1      -8.845   5.195   2.312  1.00  0.00     0.264 C 
BRANCH  11  12
ATOM     12  O   UNL     1      -8.149   5.296   3.561  1.00  0.00    -0.463 OA
BRANCH  12  13
ATOM     13  C   UNL     1      -8.528   4.435   4.539  1.00  0.00     0.302 C 
ATOM     14  O   UNL     1      -7.762   3.720   5.173  1.00  0.00    -0.253 OA
ATOM     15  C   UNL     1     -10.014   4.455   4.714  1.00  0.00     0.139 C 
ENDBRANCH  12  13
ENDBRANCH  11  12
ENDBRANCH   8  11
ENDBRANCH   7   8
ENDBRANCH   4   7
ENDBRANCH   3   4
ENDBRANCH   2   3
ENDBRANCH   1   2
BRANCH   1  16
ATOM     16  C   UNL     1     -13.033   6.517  -2.100  1.00  0.00     0.000 C 
BRANCH  16  17
ATOM     17  C   UNL     1     -14.017   6.837  -0.969  1.00  0.00     0.000 C 
BRANCH  17  18
ATOM     18  C   UNL     1     -13.340   7.033   0.391  1.00  0.00     0.000 C 
BRANCH  18  19
ATOM     19  C   UNL     1     -13.498   5.831   1.327  1.00  0.00     0.000 C 
BRANCH  19  20
ATOM     20  C   UNL     1     -12.202   5.125   1.736  1.00  0.00     0.000 C 
BRANCH  20  21
ATOM     21  C   UNL     1     -12.268   3.595   1.790  1.00  0.00     0.000 C 
BRANCH  21  22
ATOM     22  C   UNL     1     -13.285   2.939   0.850  1.00  0.00     0.004 C 
BRANCH  22  23
ATOM     23  C   UNL     1     -12.722   2.652  -0.547  1.00  0.00     0.027 C 
BRANCH  23  24
ATOM     24  C   UNL     1     -11.569   1.684  -0.619  1.00  0.00    -0.035 C 
ATOM     25  C   UNL     1     -11.091   1.061  -1.703  1.00  0.00     0.004 C 
ENDBRANCH  23  24
ENDBRANCH  22  23
ENDBRANCH  21  22
ENDBRANCH  20  21
ENDBRANCH  19  20
ENDBRANCH  18  19
ENDBRANCH  17  18
ENDBRANCH  16  17
ENDBRANCH   1  16
TORSDOF 19
ENDMDL
MODEL 8
REMARK VINA RESULT:    -4.542      4.064      6.721
REMARK INTER + INTRA:         -11.815
REMARK INTER:                  -9.305
REMARK INTRA:                  -2.510
REMARK UNBOUND:                -2.494
REMARK SMILES C=CCCCCCCCCCCC[C@H](O)C[C@H](O)COC(C)=O
REMARK SMILES IDX 11 1 12 2 13 3 14 4 15 5 16 7 17 8 18 9 19 11 20 12 21 13
REMARK SMILES IDX 23 14 22 15 10 16 9 17 8 18 7 19 6 20 5 21 4 22 3 23 2 24
REMARK SMILES IDX 1 25
REMARK H PARENT 15 6 18 10
ROOT
ATOM      1  C   UNL     1      -5.622   3.454  -2.868  1.00  0.00     0.000 C 
ENDROOT
BRANCH   1   2
ATOM      2  C   UNL     1      -7.147   3.599  -2.928  1.00  0.00     0.003 C 
BRANCH   2   3
ATOM      3  C   UNL     1      -7.843   3.258  -1.607  1.00  0.00     0.032 C 
BRANCH   3   4
ATOM      4  C   UNL     1      -8.597   4.452  -0.996  1.00  0.00     0.117 C 
BRANCH   4   5
ATOM      5  O   UNL     1      -7.652   5.192  -0.215  1.00  0.00    -0.393 OA
ATOM      6  H   UNL     1      -7.609   4.782   0.666  1.00  0.00     0.210 HD
ENDBRANCH   4   5
BRANCH   4   7
ATOM      7  C   UNL     1      -9.768   4.030  -0.093  1.00  0.00     0.067 C 
BRANCH   7   8
ATOM      8  C   UNL     1     -10.602   5.181   0.494  1.00  0.00     0.154 C 
BRANCH   8   9
ATOM      9  O   UNL     1     -10.544   6.303  -0.390  1.00  0.00    -0.389 OA
ATOM     10  H   UNL     1      -9.639   6.362  -0.767  1.00  0.00     0.211 HD
ENDBRANCH   8   9
BRANCH   8  11
ATOM     11  C   UNL     1     -10.328   5.546   1.966  1.00  0.00     0.264 C 
BRANCH  11  12
ATOM     12  O   UNL     1      -8.945   5.553   2.346  1.00  0.00    -0.463 OA
BRANCH  12  13
ATOM     13  C   UNL     1      -8.619   4.863   3.467  1.00  0.00     0.302 C 
ATOM     14  O   UNL     1      -7.474   4.608   3.820  1.00  0.00    -0.253 OA
ATOM     15  C   UNL     1      -9.851   4.427   4.197  1.00  0.00     0.139 C 
ENDBRANCH  12  13
ENDBRANCH  11  12
ENDBRANCH   8  11
ENDBRANCH   7   8
ENDBRANCH   4   7
ENDBRANCH   3   4
ENDBRANCH   2   3
ENDBRANCH   1   2
BRANCH   1  16
ATOM     16  C   UNL     1      -4.912   4.707  -2.350  1.00  0.00     0.000 C 
BRANCH  16  17
ATOM     17  C   UNL     1      -3.968   4.433  -1.173  1.00  0.00     0.000 C 
BRANCH  17  18
ATOM     18  C   UNL     1      -4.611   3.607  -0.056  1.00  0.00     0.000 C 
BRANCH  18  19
ATOM     19  C   UNL     1      -3.590   2.944   0.875  1.00  0.00     0.000 C 
BRANCH  19  20
ATOM     20  C   UNL     1      -2.120   3.099   0.474  1.00  0.00     0.000 C 
BRANCH  20  21
ATOM     21  C   UNL     1      -1.258   1.840   0.617  1.00  0.00     0.000 C 
BRANCH  21  22
ATOM     22  C   UNL     1      -0.480   1.421  -0.636  1.00  0.00     0.004 C 
BRANCH  22  23
ATOM     23  C   UNL     1      -1.349   1.363  -1.898  1.00  0.00     0.027 C 
BRANCH  23  24
ATOM     24  C   UNL     1      -2.427   0.310  -1.920  1.00  0.00    -0.035 C 
ATOM     25  C   UNL     1      -3.739   0.487  -2.122  1.00  0.00     0.004 C 
ENDBRANCH  23  24
ENDBRANCH  22  23
ENDBRANCH  21  22
ENDBRANCH  20  21
ENDBRANCH  19  20
ENDBRANCH  18  19
ENDBRANCH  17  18
ENDBRANCH  16  17
ENDBRANCH   1  16
TORSDOF 19
ENDMDL
MODEL 9
REMARK VINA RESULT:    -4.509      2.104      4.493
REMARK INTER + INTRA:         -11.747
REMARK INTER:                  -9.627
REMARK INTRA:                  -2.120
REMARK UNBOUND:                -2.494
REMARK SMILES C=CCCCCCCCCCCC[C@H](O)C[C@H](O)COC(C)=O
REMARK SMILES IDX 11 1 12 2 13 3 14 4 15 5 16 7 17 8 18 9 19 11 20 12 21 13
REMARK SMILES IDX 23 14 22 15 10 16 9 17 8 18 7 19 6 20 5 21 4 22 3 23 2 24
REMARK SMILES IDX 1 25
REMARK H PARENT 15 6 18 10
ROOT
ATOM      1  C   UNL     1      -4.485   2.368  -5.457  1.00  0.00     0.000 C 
ENDROOT
BRANCH   1   2
ATOM      2  C   UNL     1      -5.860   3.045  -5.404  1.00  0.00     0.003 C 
BRANCH   2   3
ATOM      3  C   UNL     1      -5.815   4.466  -4.834  1.00  0.00     0.032 C 
BRANCH   3   4
ATOM      4  C   UNL     1      -6.104   4.520  -3.323  1.00  0.00     0.117 C 
BRANCH   4   5
ATOM      5  O   UNL     1      -6.354   5.890  -2.991  1.00  0.00    -0.393 OA
ATOM      6  H   UNL     1      -5.857   6.096  -2.180  1.00  0.00     0.210 HD
ENDBRANCH   4   5
BRANCH   4   7
ATOM      7  C   UNL     1      -4.936   4.005  -2.466  1.00  0.00     0.067 C 
BRANCH   7   8
ATOM      8  C   UNL     1      -5.023   4.326  -0.964  1.00  0.00     0.154 C 
BRANCH   8   9
ATOM      9  O   UNL     1      -4.354   5.563  -0.708  1.00  0.00    -0.389 OA
ATOM     10  H   UNL     1      -3.441   5.509  -1.066  1.00  0.00     0.211 HD
ENDBRANCH   8   9
BRANCH   8  11
ATOM     11  C   UNL     1      -4.617   3.197   0.003  1.00  0.00     0.264 C 
BRANCH  11  12
ATOM     12  O   UNL     1      -5.277   3.217   1.276  1.00  0.00    -0.463 OA
BRANCH  12  13
ATOM     13  C   UNL     1      -4.596   2.685   2.322  1.00  0.00     0.302 C 
ATOM     14  O   UNL     1      -5.056   2.532   3.447  1.00  0.00    -0.253 OA
ATOM     15  C   UNL     1      -3.195   2.341   1.922  1.00  0.00     0.139 C 
ENDBRANCH  12  13
ENDBRANCH  11  12
ENDBRANCH   8  11
ENDBRANCH   7   8
ENDBRANCH   4   7
ENDBRANCH   3   4
ENDBRANCH   2   3
ENDBRANCH   1   2
BRANCH   1  16
ATOM     16  C   UNL     1      -3.956   2.179  -6.882  1.00  0.00     0.000 C 
BRANCH  16  17
ATOM     17  C   UNL     1      -2.450   1.897  -6.942  1.00  0.00     0.000 C 
BRANCH  17  18
ATOM     18  C   UNL     1      -1.650   2.623  -5.857  1.00  0.00     0.000 C 
BRANCH  18  19
ATOM     19  C   UNL     1      -0.894   1.674  -4.921  1.00  0.00     0.000 C 
BRANCH  19  20
ATOM     20  C   UNL     1      -1.572   0.330  -4.641  1.00  0.00     0.000 C 
BRANCH  20  21
ATOM     21  C   UNL     1      -2.221   0.190  -3.260  1.00  0.00     0.000 C 
BRANCH  21  22
ATOM     22  C   UNL     1      -2.371   1.488  -2.460  1.00  0.00     0.004 C 
BRANCH  22  23
ATOM     23  C   UNL     1      -1.377   1.602  -1.297  1.00  0.00     0.027 C 
BRANCH  23  24
ATOM     24  C   UNL     1      -0.244   0.608  -1.285  1.00  0.00    -0.035 C 
ATOM     25  C   UNL     1       1.004   0.785  -1.736  1.00  0.00     0.004 C 
ENDBRANCH  23  24
ENDBRANCH  22  23
ENDBRANCH  21  22
ENDBRANCH  20  21
ENDBRANCH  19  20
ENDBRANCH  18  19
ENDBRANCH  17  18
ENDBRANCH  16  17
ENDBRANCH   1  16
TORSDOF 19
ENDMDL
