MODEL 1
REMARK VINA RESULT:    -5.050      0.000      0.000
REMARK INTER + INTRA:         -12.612
REMARK INTER:                 -10.069
REMARK INTRA:                  -2.544
REMARK UNBOUND:                -2.544
REMARK SMILES C#CCCCCCCCCCCC[C@H](O)C[C@H](O)COC(C)=O
REMARK SMILES IDX 11 1 12 2 13 3 14 4 15 5 16 7 17 8 18 9 19 11 20 12 21 13
REMARK SMILES IDX 23 14 22 15 10 16 9 17 8 18 7 19 6 20 5 21 4 22 3 23 2 24
REMARK SMILES IDX 1 25
REMARK H PARENT 15 6 18 10
ROOT
ATOM      1  C   UNL     1     -10.051   2.328  -1.690  1.00  0.00     0.000 C 
ENDROOT
BRANCH   1   2
ATOM      2  C   UNL     1      -9.003   3.433  -1.873  1.00  0.00     0.003 C 
BRANCH   2   3
ATOM      3  C   UNL     1      -8.954   4.420  -0.701  1.00  0.00     0.032 C 
BRANCH   3   4
ATOM      4  C   UNL     1      -7.722   4.265   0.204  1.00  0.00     0.117 C 
BRANCH   4   5
ATOM      5  O   UNL     1      -7.380   5.516   0.801  1.00  0.00    -0.393 OA
ATOM      6  H   UNL     1      -7.766   6.218   0.247  1.00  0.00     0.210 HD
ENDBRANCH   4   5
BRANCH   4   7
ATOM      7  C   UNL     1      -6.499   3.705  -0.536  1.00  0.00     0.067 C 
BRANCH   7   8
ATOM      8  C   UNL     1      -5.176   4.179   0.092  1.00  0.00     0.154 C 
BRANCH   8   9
ATOM      9  O   UNL     1      -4.653   5.296  -0.632  1.00  0.00    -0.389 OA
ATOM     10  H   UNL     1      -5.426   5.797  -0.969  1.00  0.00     0.211 HD
ENDBRANCH   8   9
BRANCH   8  11
ATOM     11  C   UNL     1      -4.113   3.075   0.103  1.00  0.00     0.264 C 
BRANCH  11  12
ATOM     12  O   UNL     1      -4.581   1.934   0.840  1.00  0.00    -0.463 OA
BRANCH  12  13
ATOM     13  C   UNL     1      -4.121   1.799   2.112  1.00  0.00     0.302 C 
ATOM     14  O   UNL     1      -4.806   1.775   3.124  1.00  0.00    -0.253 OA
ATOM     15  C   UNL     1      -2.628   1.700   2.103  1.00  0.00     0.139 C 
ENDBRANCH  12  13
ENDBRANCH  11  12
ENDBRANCH   8  11
ENDBRANCH   7   8
ENDBRANCH   4   7
ENDBRANCH   3   4
ENDBRANCH   2   3
ENDBRANCH   1   2
BRANCH   1  16
ATOM     16  C   UNL     1     -11.318   2.812  -0.978  1.00  0.00     0.000 C 
BRANCH  16  17
ATOM     17  C   UNL     1     -11.568   2.025   0.310  1.00  0.00     0.000 C 
BRANCH  17  18
ATOM     18  C   UNL     1     -12.106   2.888   1.456  1.00  0.00     0.000 C 
BRANCH  18  19
ATOM     19  C   UNL     1     -11.050   3.621   2.289  1.00  0.00     0.000 C 
BRANCH  19  20
ATOM     20  C   UNL     1     -11.388   5.067   2.660  1.00  0.00     0.000 C 
BRANCH  20  21
ATOM     21  C   UNL     1     -11.087   6.116   1.586  1.00  0.00     0.001 C 
BRANCH  21  22
ATOM     22  C   UNL     1     -12.349   6.744   0.981  1.00  0.00     0.013 C 
BRANCH  22  23
ATOM     23  C   UNL     1     -12.727   6.131  -0.369  1.00  0.00     0.089 C 
ATOM     24  C   UNL     1     -11.851   6.589  -1.455  1.00  0.00    -0.107 C 
ATOM     25  C   UNL     1     -11.134   6.954  -2.350  1.00  0.00     0.004 C 
ENDBRANCH  22  23
ENDBRANCH  21  22
ENDBRANCH  20  21
ENDBRANCH  19  20
ENDBRANCH  18  19
ENDBRANCH  17  18
ENDBRANCH  16  17
ENDBRANCH   1  16
TORSDOF 18
ENDMDL
MODEL 2
REMARK VINA RESULT:    -4.743      5.235      8.702
REMARK INTER + INTRA:         -12.000
REMARK INTER:                 -10.117
REMARK INTRA:                  -1.882
REMARK UNBOUND:                -2.544
REMARK SMILES C#CCCCCCCCCCCC[C@H](O)C[C@H](O)COC(C)=O
REMARK SMILES IDX 11 1 12 2 13 3 14 4 15 5 16 7 17 8 18 9 19 11 20 12 21 13
REMARK SMILES IDX 23 14 22 15 10 16 9 17 8 18 7 19 6 20 5 21 4 22 3 23 2 24
REMARK SMILES IDX 1 25
REMARK H PARENT 15 6 18 10
ROOT
ATOM      1  C   UNL     1      -0.050   1.034  -1.086  1.00  0.00     0.000 C 
ENDROOT
BRANCH   1   2
ATOM      2  C   UNL     1      -1.269   1.058  -0.156  1.00  0.00     0.003 C 
BRANCH   2   3
ATOM      3  C   UNL     1      -1.229   2.203   0.863  1.00  0.00     0.032 C 
BRANCH   3   4
ATOM      4  C   UNL     1      -2.319   2.126   1.942  1.00  0.00     0.117 C 
BRANCH   4   5
ATOM      5  O   UNL     1      -2.034   1.074   2.865  1.00  0.00    -0.393 OA
ATOM      6  H   UNL     1      -2.337   0.242   2.461  1.00  0.00     0.210 HD
ENDBRANCH   4   5
BRANCH   4   7
ATOM      7  C   UNL     1      -3.726   1.924   1.363  1.00  0.00     0.067 C 
BRANCH   7   8
ATOM      8  C   UNL     1      -4.455   3.260   1.133  1.00  0.00     0.154 C 
BRANCH   8   9
ATOM      9  O   UNL     1      -5.571   3.377   2.019  1.00  0.00    -0.389 OA
ATOM     10  H   UNL     1      -6.373   3.193   1.484  1.00  0.00     0.211 HD
ENDBRANCH   8   9
BRANCH   8  11
ATOM     11  C   UNL     1      -4.967   3.399  -0.306  1.00  0.00     0.264 C 
BRANCH  11  12
ATOM     12  O   UNL     1      -4.885   4.767  -0.739  1.00  0.00    -0.463 OA
BRANCH  12  13
ATOM     13  C   UNL     1      -4.132   5.012  -1.843  1.00  0.00     0.302 C 
ATOM     14  O   UNL     1      -4.539   5.050  -2.995  1.00  0.00    -0.253 OA
ATOM     15  C   UNL     1      -2.702   5.214  -1.448  1.00  0.00     0.139 C 
ENDBRANCH  12  13
ENDBRANCH  11  12
ENDBRANCH   8  11
ENDBRANCH   7   8
ENDBRANCH   4   7
ENDBRANCH   3   4
ENDBRANCH   2   3
ENDBRANCH   1   2
BRANCH   1  16
ATOM     16  C   UNL     1      -0.405   0.694  -2.537  1.00  0.00     0.000 C 
BRANCH  16  17
ATOM     17  C   UNL     1      -1.874   1.003  -2.838  1.00  0.00     0.000 C 
BRANCH  17  18
ATOM     18  C   UNL     1      -2.070   2.278  -3.665  1.00  0.00     0.000 C 
BRANCH  18  19
ATOM     19  C   UNL     1      -1.806   2.144  -5.168  1.00  0.00     0.000 C 
BRANCH  19  20
ATOM     20  C   UNL     1      -2.229   0.814  -5.797  1.00  0.00     0.000 C 
BRANCH  20  21
ATOM     21  C   UNL     1      -2.942   0.915  -7.148  1.00  0.00     0.001 C 
BRANCH  21  22
ATOM     22  C   UNL     1      -4.296   0.196  -7.173  1.00  0.00     0.013 C 
BRANCH  22  23
ATOM     23  C   UNL     1      -5.098   0.397  -5.885  1.00  0.00     0.089 C 
ATOM     24  C   UNL     1      -5.530   1.790  -5.708  1.00  0.00    -0.107 C 
ATOM     25  C   UNL     1      -5.894   2.927  -5.559  1.00  0.00     0.004 C 
ENDBRANCH  22  23
ENDBRANCH  21  22
ENDBRANCH  20  21
ENDBRANCH  19  20
ENDBRANCH  18  19
ENDBRANCH  17  18
ENDBRANCH  16  17
ENDBRANCH   1  16
TORSDOF 18
ENDMDL
MODEL 3
REMARK VINA RESULT:    -4.694      6.364      8.840
REMARK INTER + INTRA:         -11.904
REMARK INTER:                  -9.533
REMARK INTRA:                  -2.371
REMARK UNBOUND:                -2.544
REMARK SMILES C#CCCCCCCCCCCC[C@H](O)C[C@H](O)COC(C)=O
REMARK SMILES IDX 11 1 12 2 13 3 14 4 15 5 16 7 17 8 18 9 19 11 20 12 21 13
REMARK SMILES IDX 23 14 22 15 10 16 9 17 8 18 7 19 6 20 5 21 4 22 3 23 2 24
REMARK SMILES IDX 1 25
REMARK H PARENT 15 6 18 10
ROOT
ATOM      1  C   UNL     1      -4.461   3.436  -3.112  1.00  0.00     0.000 C 
ENDROOT
BRANCH   1   2
ATOM      2  C   UNL     1      -3.097   3.681  -2.454  1.00  0.00     0.003 C 
BRANCH   2   3
ATOM      3  C   UNL     1      -2.432   2.395  -1.947  1.00  0.00     0.032 C 
BRANCH   3   4
ATOM      4  C   UNL     1      -2.072   2.418  -0.454  1.00  0.00     0.117 C 
BRANCH   4   5
ATOM      5  O   UNL     1      -2.012   3.762   0.025  1.00  0.00    -0.393 OA
ATOM      6  H   UNL     1      -1.118   4.099  -0.164  1.00  0.00     0.210 HD
ENDBRANCH   4   5
BRANCH   4   7
ATOM      7  C   UNL     1      -0.744   1.710  -0.144  1.00  0.00     0.067 C 
BRANCH   7   8
ATOM      8  C   UNL     1      -0.410   0.627  -1.185  1.00  0.00     0.154 C 
BRANCH   8   9
ATOM      9  O   UNL     1      -0.403  -0.665  -0.573  1.00  0.00    -0.389 OA
ATOM     10  H   UNL     1       0.538  -0.897  -0.421  1.00  0.00     0.211 HD
ENDBRANCH   8   9
BRANCH   8  11
ATOM     11  C   UNL     1       0.957   0.856  -1.839  1.00  0.00     0.264 C 
BRANCH  11  12
ATOM     12  O   UNL     1       1.099   0.035  -3.010  1.00  0.00    -0.463 OA
BRANCH  12  13
ATOM     13  C   UNL     1       0.172   0.205  -3.989  1.00  0.00     0.302 C 
ATOM     14  O   UNL     1      -0.577  -0.657  -4.425  1.00  0.00    -0.253 OA
ATOM     15  C   UNL     1       0.209   1.617  -4.483  1.00  0.00     0.139 C 
ENDBRANCH  12  13
ENDBRANCH  11  12
ENDBRANCH   8  11
ENDBRANCH   7   8
ENDBRANCH   4   7
ENDBRANCH   3   4
ENDBRANCH   2   3
ENDBRANCH   1   2
BRANCH   1  16
ATOM     16  C   UNL     1      -4.729   1.958  -3.411  1.00  0.00     0.000 C 
BRANCH  16  17
ATOM     17  C   UNL     1      -5.642   1.793  -4.628  1.00  0.00     0.000 C 
BRANCH  17  18
ATOM     18  C   UNL     1      -5.243   0.623  -5.534  1.00  0.00     0.000 C 
BRANCH  18  19
ATOM     19  C   UNL     1      -3.757   0.257  -5.532  1.00  0.00     0.000 C 
BRANCH  19  20
ATOM     20  C   UNL     1      -2.950   0.763  -6.731  1.00  0.00     0.000 C 
BRANCH  20  21
ATOM     21  C   UNL     1      -2.621   2.259  -6.725  1.00  0.00     0.001 C 
BRANCH  21  22
ATOM     22  C   UNL     1      -3.029   2.973  -8.020  1.00  0.00     0.013 C 
BRANCH  22  23
ATOM     23  C   UNL     1      -3.949   2.124  -8.901  1.00  0.00     0.089 C 
ATOM     24  C   UNL     1      -5.363   2.488  -8.744  1.00  0.00    -0.107 C 
ATOM     25  C   UNL     1      -6.523   2.785  -8.627  1.00  0.00     0.004 C 
ENDBRANCH  22  23
ENDBRANCH  21  22
ENDBRANCH  20  21
ENDBRANCH  19  20
ENDBRANCH  18  19
ENDBRANCH  17  18
ENDBRANCH  16  17
ENDBRANCH   1  16
TORSDOF 18
ENDMDL
MODEL 4
REMARK VINA RESULT:    -4.660      4.927      7.679
REMARK INTER + INTRA:         -11.836
REMARK INTER:                  -8.818
REMARK INTRA:                  -3.018
REMARK UNBOUND:                -2.544
REMARK SMILES C#CCCCCCCCCCCC[C@H](O)C[C@H](O)COC(C)=O
REMARK SMILES IDX 11 1 12 2 13 3 14 4 15 5 16 7 17 8 18 9 19 11 20 12 21 13
REMARK SMILES IDX 23 14 22 15 10 16 9 17 8 18 7 19 6 20 5 21 4 22 3 23 2 24
REMARK SMILES IDX 1 25
REMARK H PARENT 15 6 18 10
ROOT
ATOM      1  C   UNL     1      -6.306   2.640  -1.697  1.00  0.00     0.000 C 
ENDROOT
BRANCH   1   2
ATOM      2  C   UNL     1      -4.778   2.705  -1.593  1.00  0.00     0.003 C 
BRANCH   2   3
ATOM      3  C   UNL     1      -4.287   3.563  -0.421  1.00  0.00     0.032 C 
BRANCH   3   4
ATOM      4  C   UNL     1      -2.826   3.310  -0.021  1.00  0.00     0.117 C 
BRANCH   4   5
ATOM      5  O   UNL     1      -2.060   4.509  -0.143  1.00  0.00    -0.393 OA
ATOM      6  H   UNL     1      -1.794   4.591  -1.076  1.00  0.00     0.210 HD
ENDBRANCH   4   5
BRANCH   4   7
ATOM      7  C   UNL     1      -2.161   2.198  -0.844  1.00  0.00     0.067 C 
BRANCH   7   8
ATOM      8  C   UNL     1      -1.158   1.380  -0.009  1.00  0.00     0.154 C 
BRANCH   8   9
ATOM      9  O   UNL     1      -0.569   2.200   1.003  1.00  0.00    -0.389 OA
ATOM     10  H   UNL     1       0.360   1.900   1.100  1.00  0.00     0.211 HD
ENDBRANCH   8   9
BRANCH   8  11
ATOM     11  C   UNL     1      -0.032   0.796  -0.869  1.00  0.00     0.264 C 
BRANCH  11  12
ATOM     12  O   UNL     1      -0.548   0.334  -2.128  1.00  0.00    -0.463 OA
BRANCH  12  13
ATOM     13  C   UNL     1      -0.561  -1.011  -2.324  1.00  0.00     0.302 C 
ATOM     14  O   UNL     1      -0.873  -1.854  -1.497  1.00  0.00    -0.253 OA
ATOM     15  C   UNL     1      -0.113  -1.324  -3.718  1.00  0.00     0.139 C 
ENDBRANCH  12  13
ENDBRANCH  11  12
ENDBRANCH   8  11
ENDBRANCH   7   8
ENDBRANCH   4   7
ENDBRANCH   3   4
ENDBRANCH   2   3
ENDBRANCH   1   2
BRANCH   1  16
ATOM     16  C   UNL     1      -6.828   2.943  -3.104  1.00  0.00     0.000 C 
BRANCH  16  17
ATOM     17  C   UNL     1      -5.895   3.898  -3.852  1.00  0.00     0.000 C 
BRANCH  17  18
ATOM     18  C   UNL     1      -5.698   3.528  -5.325  1.00  0.00     0.000 C 
BRANCH  18  19
ATOM     19  C   UNL     1      -6.875   2.814  -5.995  1.00  0.00     0.000 C 
BRANCH  19  20
ATOM     20  C   UNL     1      -6.578   1.411  -6.532  1.00  0.00     0.000 C 
BRANCH  20  21
ATOM     21  C   UNL     1      -5.199   0.844  -6.182  1.00  0.00     0.001 C 
BRANCH  21  22
ATOM     22  C   UNL     1      -5.177   0.089  -4.847  1.00  0.00     0.013 C 
BRANCH  22  23
ATOM     23  C   UNL     1      -3.765  -0.058  -4.273  1.00  0.00     0.089 C 
ATOM     24  C   UNL     1      -2.970   1.167  -4.426  1.00  0.00    -0.107 C 
ATOM     25  C   UNL     1      -2.313   2.168  -4.541  1.00  0.00     0.004 C 
ENDBRANCH  22  23
ENDBRANCH  21  22
ENDBRANCH  20  21
ENDBRANCH  19  20
ENDBRANCH  18  19
ENDBRANCH  17  18
ENDBRANCH  16  17
ENDBRANCH   1  16
TORSDOF 18
ENDMDL
MODEL 5
REMARK VINA RESULT:    -4.649      1.853      2.582
REMARK INTER + INTRA:         -11.813
REMARK INTER:                  -9.200
REMARK INTRA:                  -2.613
REMARK UNBOUND:                -2.544
REMARK SMILES C#CCCCCCCCCCCC[C@H](O)C[C@H](O)COC(C)=O
REMARK SMILES IDX 11 1 12 2 13 3 14 4 15 5 16 7 17 8 18 9 19 11 20 12 21 13
REMARK SMILES IDX 23 14 22 15 10 16 9 17 8 18 7 19 6 20 5 21 4 22 3 23 2 24
REMARK SMILES IDX 1 25
REMARK H PARENT 15 6 18 10
ROOT
ATOM      1  C   UNL     1      -9.834   2.907  -2.449  1.00  0.00     0.000 C 
ENDROOT
BRANCH   1   2
ATOM      2  C   UNL     1      -8.658   2.612  -1.510  1.00  0.00     0.003 C 
BRANCH   2   3
ATOM      3  C   UNL     1      -7.640   3.757  -1.439  1.00  0.00     0.032 C 
BRANCH   3   4
ATOM      4  C   UNL     1      -6.174   3.301  -1.492  1.00  0.00     0.117 C 
BRANCH   4   5
ATOM      5  O   UNL     1      -6.078   1.898  -1.246  1.00  0.00    -0.393 OA
ATOM      6  H   UNL     1      -5.868   1.781  -0.303  1.00  0.00     0.210 HD
ENDBRANCH   4   5
BRANCH   4   7
ATOM      7  C   UNL     1      -5.275   4.052  -0.499  1.00  0.00     0.067 C 
BRANCH   7   8
ATOM      8  C   UNL     1      -4.146   3.159   0.049  1.00  0.00     0.154 C 
BRANCH   8   9
ATOM      9  O   UNL     1      -3.790   3.564   1.373  1.00  0.00    -0.389 OA
ATOM     10  H   UNL     1      -4.505   4.158   1.686  1.00  0.00     0.211 HD
ENDBRANCH   8   9
BRANCH   8  11
ATOM     11  C   UNL     1      -2.888   3.217  -0.826  1.00  0.00     0.264 C 
BRANCH  11  12
ATOM     12  O   UNL     1      -2.941   2.211  -1.850  1.00  0.00    -0.463 OA
BRANCH  12  13
ATOM     13  C   UNL     1      -2.833   0.920  -1.442  1.00  0.00     0.302 C 
ATOM     14  O   UNL     1      -3.698   0.062  -1.538  1.00  0.00    -0.253 OA
ATOM     15  C   UNL     1      -1.487   0.693  -0.828  1.00  0.00     0.139 C 
ENDBRANCH  12  13
ENDBRANCH  11  12
ENDBRANCH   8  11
ENDBRANCH   7   8
ENDBRANCH   4   7
ENDBRANCH   3   4
ENDBRANCH   2   3
ENDBRANCH   1   2
BRANCH   1  16
ATOM     16  C   UNL     1     -11.180   2.425  -1.900  1.00  0.00     0.000 C 
BRANCH  16  17
ATOM     17  C   UNL     1     -10.989   1.407  -0.773  1.00  0.00     0.000 C 
BRANCH  17  18
ATOM     18  C   UNL     1     -11.771   1.754   0.498  1.00  0.00     0.000 C 
BRANCH  18  19
ATOM     19  C   UNL     1     -12.950   2.714   0.315  1.00  0.00     0.000 C 
BRANCH  19  20
ATOM     20  C   UNL     1     -13.358   3.505   1.560  1.00  0.00     0.000 C 
BRANCH  20  21
ATOM     21  C   UNL     1     -12.895   4.964   1.601  1.00  0.00     0.001 C 
BRANCH  21  22
ATOM     22  C   UNL     1     -11.559   5.154   2.330  1.00  0.00     0.013 C 
BRANCH  22  23
ATOM     23  C   UNL     1     -10.353   5.060   1.391  1.00  0.00     0.089 C 
ATOM     24  C   UNL     1     -10.632   5.630   0.066  1.00  0.00    -0.107 C 
ATOM     25  C   UNL     1     -10.849   6.101  -1.019  1.00  0.00     0.004 C 
ENDBRANCH  22  23
ENDBRANCH  21  22
ENDBRANCH  20  21
ENDBRANCH  19  20
ENDBRANCH  18  19
ENDBRANCH  17  18
ENDBRANCH  16  17
ENDBRANCH   1  16
TORSDOF 18
ENDMDL
MODEL 6
REMARK VINA RESULT:    -4.633      5.752      9.435
REMARK INTER + INTRA:         -11.781
REMARK INTER:                  -9.338
REMARK INTRA:                  -2.443
REMARK UNBOUND:                -2.544
REMARK SMILES C#CCCCCCCCCCCC[C@H](O)C[C@H](O)COC(C)=O
REMARK SMILES IDX 11 1 12 2 13 3 14 4 15 5 16 7 17 8 18 9 19 11 20 12 21 13
REMARK SMILES IDX 23 14 22 15 10 16 9 17 8 18 7 19 6 20 5 21 4 22 3 23 2 24
REMARK SMILES IDX 1 25
REMARK H PARENT 15 6 18 10
ROOT
ATOM      1  C   UNL     1       0.567  -0.645  -3.065  1.00  0.00     0.000 C 
ENDROOT
BRANCH   1   2
ATOM      2  C   UNL     1       0.382  -0.499  -1.549  1.00  0.00     0.003 C 
BRANCH   2   3
ATOM      3  C   UNL     1      -1.017  -0.007  -1.157  1.00  0.00     0.032 C 
BRANCH   3   4
ATOM      4  C   UNL     1      -1.123   1.514  -0.973  1.00  0.00     0.117 C 
BRANCH   4   5
ATOM      5  O   UNL     1      -0.250   1.953   0.069  1.00  0.00    -0.393 OA
ATOM      6  H   UNL     1       0.630   1.579  -0.112  1.00  0.00     0.210 HD
ENDBRANCH   4   5
BRANCH   4   7
ATOM      7  C   UNL     1      -2.552   1.985  -0.668  1.00  0.00     0.067 C 
BRANCH   7   8
ATOM      8  C   UNL     1      -2.675   3.519  -0.702  1.00  0.00     0.154 C 
BRANCH   8   9
ATOM      9  O   UNL     1      -1.930   4.102   0.370  1.00  0.00    -0.389 OA
ATOM     10  H   UNL     1      -2.194   3.625   1.186  1.00  0.00     0.211 HD
ENDBRANCH   8   9
BRANCH   8  11
ATOM     11  C   UNL     1      -4.131   3.985  -0.583  1.00  0.00     0.264 C 
BRANCH  11  12
ATOM     12  O   UNL     1      -4.920   3.449  -1.658  1.00  0.00    -0.463 OA
BRANCH  12  13
ATOM     13  C   UNL     1      -4.857   4.106  -2.846  1.00  0.00     0.302 C 
ATOM     14  O   UNL     1      -4.448   5.245  -3.015  1.00  0.00    -0.253 OA
ATOM     15  C   UNL     1      -5.386   3.231  -3.938  1.00  0.00     0.139 C 
ENDBRANCH  12  13
ENDBRANCH  11  12
ENDBRANCH   8  11
ENDBRANCH   7   8
ENDBRANCH   4   7
ENDBRANCH   3   4
ENDBRANCH   2   3
ENDBRANCH   1   2
BRANCH   1  16
ATOM     16  C   UNL     1       0.441   0.682  -3.818  1.00  0.00     0.000 C 
BRANCH  16  17
ATOM     17  C   UNL     1      -0.798   0.697  -4.717  1.00  0.00     0.000 C 
BRANCH  17  18
ATOM     18  C   UNL     1      -1.285   2.109  -5.058  1.00  0.00     0.000 C 
BRANCH  18  19
ATOM     19  C   UNL     1      -2.565   2.188  -5.896  1.00  0.00     0.000 C 
BRANCH  19  20
ATOM     20  C   UNL     1      -2.554   1.380  -7.196  1.00  0.00     0.000 C 
BRANCH  20  21
ATOM     21  C   UNL     1      -3.590   0.256  -7.289  1.00  0.00     0.001 C 
BRANCH  21  22
ATOM     22  C   UNL     1      -4.909   0.589  -6.579  1.00  0.00     0.013 C 
BRANCH  22  23
ATOM     23  C   UNL     1      -5.324  -0.483  -5.568  1.00  0.00     0.089 C 
ATOM     24  C   UNL     1      -4.517  -0.435  -4.342  1.00  0.00    -0.107 C 
ATOM     25  C   UNL     1      -3.866  -0.399  -3.331  1.00  0.00     0.004 C 
ENDBRANCH  22  23
ENDBRANCH  21  22
ENDBRANCH  20  21
ENDBRANCH  19  20
ENDBRANCH  18  19
ENDBRANCH  17  18
ENDBRANCH  16  17
ENDBRANCH   1  16
TORSDOF 18
ENDMDL
MODEL 7
REMARK VINA RESULT:    -4.632      1.437      2.702
REMARK INTER + INTRA:         -11.778
REMARK INTER:                  -9.374
REMARK INTRA:                  -2.405
REMARK UNBOUND:                -2.544
REMARK SMILES C#CCCCCCCCCCCC[C@H](O)C[C@H](O)COC(C)=O
REMARK SMILES IDX 11 1 12 2 13 3 14 4 15 5 16 7 17 8 18 9 19 11 20 12 21 13
REMARK SMILES IDX 23 14 22 15 10 16 9 17 8 18 7 19 6 20 5 21 4 22 3 23 2 24
REMARK SMILES IDX 1 25
REMARK H PARENT 15 6 18 10
ROOT
ATOM      1  C   UNL     1     -10.252   2.520  -1.042  1.00  0.00     0.000 C 
ENDROOT
BRANCH   1   2
ATOM      2  C   UNL     1     -10.213   3.659  -2.067  1.00  0.00     0.003 C 
BRANCH   2   3
ATOM      3  C   UNL     1      -9.295   4.815  -1.651  1.00  0.00     0.032 C 
BRANCH   3   4
ATOM      4  C   UNL     1      -8.100   4.392  -0.783  1.00  0.00     0.117 C 
BRANCH   4   5
ATOM      5  O   UNL     1      -7.856   5.360   0.238  1.00  0.00    -0.393 OA
ATOM      6  H   UNL     1      -8.587   6.003   0.210  1.00  0.00     0.210 HD
ENDBRANCH   4   5
BRANCH   4   7
ATOM      7  C   UNL     1      -6.815   4.176  -1.594  1.00  0.00     0.067 C 
BRANCH   7   8
ATOM      8  C   UNL     1      -5.580   4.015  -0.689  1.00  0.00     0.154 C 
BRANCH   8   9
ATOM      9  O   UNL     1      -5.032   5.295  -0.363  1.00  0.00    -0.389 OA
ATOM     10  H   UNL     1      -5.596   5.962  -0.809  1.00  0.00     0.211 HD
ENDBRANCH   8   9
BRANCH   8  11
ATOM     11  C   UNL     1      -4.481   3.178  -1.354  1.00  0.00     0.264 C 
BRANCH  11  12
ATOM     12  O   UNL     1      -3.516   2.749  -0.380  1.00  0.00    -0.463 OA
BRANCH  12  13
ATOM     13  C   UNL     1      -3.971   1.946   0.617  1.00  0.00     0.302 C 
ATOM     14  O   UNL     1      -4.680   0.960   0.477  1.00  0.00    -0.253 OA
ATOM     15  C   UNL     1      -3.491   2.456   1.940  1.00  0.00     0.139 C 
ENDBRANCH  12  13
ENDBRANCH  11  12
ENDBRANCH   8  11
ENDBRANCH   7   8
ENDBRANCH   4   7
ENDBRANCH   3   4
ENDBRANCH   2   3
ENDBRANCH   1   2
BRANCH   1  16
ATOM     16  C   UNL     1     -11.571   1.742  -1.054  1.00  0.00     0.000 C 
BRANCH  16  17
ATOM     17  C   UNL     1     -12.685   2.545  -1.731  1.00  0.00     0.000 C 
BRANCH  17  18
ATOM     18  C   UNL     1     -13.748   3.054  -0.754  1.00  0.00     0.000 C 
BRANCH  18  19
ATOM     19  C   UNL     1     -13.421   2.887   0.733  1.00  0.00     0.000 C 
BRANCH  19  20
ATOM     20  C   UNL     1     -13.277   4.187   1.528  1.00  0.00     0.000 C 
BRANCH  20  21
ATOM     21  C   UNL     1     -12.399   5.265   0.886  1.00  0.00     0.001 C 
BRANCH  21  22
ATOM     22  C   UNL     1     -11.135   5.578   1.696  1.00  0.00     0.013 C 
BRANCH  22  23
ATOM     23  C   UNL     1     -10.426   4.318   2.198  1.00  0.00     0.089 C 
ATOM     24  C   UNL     1     -10.207   4.342   3.650  1.00  0.00    -0.107 C 
ATOM     25  C   UNL     1     -10.030   4.351   4.840  1.00  0.00     0.004 C 
ENDBRANCH  22  23
ENDBRANCH  21  22
ENDBRANCH  20  21
ENDBRANCH  19  20
ENDBRANCH  18  19
ENDBRANCH  17  18
ENDBRANCH  16  17
ENDBRANCH   1  16
TORSDOF 18
ENDMDL
MODEL 8
REMARK VINA RESULT:    -4.593      5.159      8.050
REMARK INTER + INTRA:         -11.701
REMARK INTER:                  -8.846
REMARK INTRA:                  -2.855
REMARK UNBOUND:                -2.544
REMARK SMILES C#CCCCCCCCCCCC[C@H](O)C[C@H](O)COC(C)=O
REMARK SMILES IDX 11 1 12 2 13 3 14 4 15 5 16 7 17 8 18 9 19 11 20 12 21 13
REMARK SMILES IDX 23 14 22 15 10 16 9 17 8 18 7 19 6 20 5 21 4 22 3 23 2 24
REMARK SMILES IDX 1 25
REMARK H PARENT 15 6 18 10
ROOT
ATOM      1  C   UNL     1      -7.066   2.939  -6.059  1.00  0.00     0.000 C 
ENDROOT
BRANCH   1   2
ATOM      2  C   UNL     1      -6.476   3.814  -4.946  1.00  0.00     0.003 C 
BRANCH   2   3
ATOM      3  C   UNL     1      -6.293   3.064  -3.621  1.00  0.00     0.032 C 
BRANCH   3   4
ATOM      4  C   UNL     1      -5.335   3.750  -2.635  1.00  0.00     0.117 C 
BRANCH   4   5
ATOM      5  O   UNL     1      -4.201   4.277  -3.325  1.00  0.00    -0.393 OA
ATOM      6  H   UNL     1      -4.021   5.160  -2.957  1.00  0.00     0.210 HD
ENDBRANCH   4   5
BRANCH   4   7
ATOM      7  C   UNL     1      -4.857   2.817  -1.513  1.00  0.00     0.067 C 
BRANCH   7   8
ATOM      8  C   UNL     1      -4.598   3.577  -0.200  1.00  0.00     0.154 C 
BRANCH   8   9
ATOM      9  O   UNL     1      -4.701   4.987  -0.412  1.00  0.00    -0.389 OA
ATOM     10  H   UNL     1      -5.396   5.117  -1.092  1.00  0.00     0.211 HD
ENDBRANCH   8   9
BRANCH   8  11
ATOM     11  C   UNL     1      -3.209   3.278   0.376  1.00  0.00     0.264 C 
BRANCH  11  12
ATOM     12  O   UNL     1      -2.764   1.975  -0.035  1.00  0.00    -0.463 OA
BRANCH  12  13
ATOM     13  C   UNL     1      -1.437   1.838  -0.293  1.00  0.00     0.302 C 
ATOM     14  O   UNL     1      -0.525   2.098   0.479  1.00  0.00    -0.253 OA
ATOM     15  C   UNL     1      -1.240   1.333  -1.688  1.00  0.00     0.139 C 
ENDBRANCH  12  13
ENDBRANCH  11  12
ENDBRANCH   8  11
ENDBRANCH   7   8
ENDBRANCH   4   7
ENDBRANCH   3   4
ENDBRANCH   2   3
ENDBRANCH   1   2
BRANCH   1  16
ATOM     16  C   UNL     1      -7.385   3.722  -7.336  1.00  0.00     0.000 C 
BRANCH  16  17
ATOM     17  C   UNL     1      -7.265   2.835  -8.578  1.00  0.00     0.000 C 
BRANCH  17  18
ATOM     18  C   UNL     1      -6.144   1.795  -8.477  1.00  0.00     0.000 C 
BRANCH  18  19
ATOM     19  C   UNL     1      -4.931   2.034  -9.381  1.00  0.00     0.000 C 
BRANCH  19  20
ATOM     20  C   UNL     1      -3.590   2.193  -8.660  1.00  0.00     0.000 C 
BRANCH  20  21
ATOM     21  C   UNL     1      -3.670   2.679  -7.209  1.00  0.00     0.001 C 
BRANCH  21  22
ATOM     22  C   UNL     1      -2.616   2.038  -6.298  1.00  0.00     0.013 C 
BRANCH  22  23
ATOM     23  C   UNL     1      -3.224   1.399  -5.047  1.00  0.00     0.089 C 
ATOM     24  C   UNL     1      -4.311   0.465  -5.369  1.00  0.00    -0.107 C 
ATOM     25  C   UNL     1      -5.197  -0.308  -5.625  1.00  0.00     0.004 C 
ENDBRANCH  22  23
ENDBRANCH  21  22
ENDBRANCH  20  21
ENDBRANCH  19  20
ENDBRANCH  18  19
ENDBRANCH  17  18
ENDBRANCH  16  17
ENDBRANCH   1  16
TORSDOF 18
ENDMDL
MODEL 9
REMARK VINA RESULT:    -4.555      5.922      8.088
REMARK INTER + INTRA:         -11.626
REMARK INTER:                  -9.139
REMARK INTRA:                  -2.487
REMARK UNBOUND:                -2.544
REMARK SMILES C#CCCCCCCCCCCC[C@H](O)C[C@H](O)COC(C)=O
REMARK SMILES IDX 11 1 12 2 13 3 14 4 15 5 16 7 17 8 18 9 19 11 20 12 21 13
REMARK SMILES IDX 23 14 22 15 10 16 9 17 8 18 7 19 6 20 5 21 4 22 3 23 2 24
REMARK SMILES IDX 1 25
REMARK H PARENT 15 6 18 10
ROOT
ATOM      1  C   UNL     1      -5.013   1.454  -3.205  1.00  0.00     0.000 C 
ENDROOT
BRANCH   1   2
ATOM      2  C   UNL     1      -3.871   0.485  -3.532  1.00  0.00     0.003 C 
BRANCH   2   3
ATOM      3  C   UNL     1      -2.904   1.028  -4.592  1.00  0.00     0.032 C 
BRANCH   3   4
ATOM      4  C   UNL     1      -1.437   0.627  -4.373  1.00  0.00     0.117 C 
BRANCH   4   5
ATOM      5  O   UNL     1      -1.277  -0.784  -4.522  1.00  0.00    -0.393 OA
ATOM      6  H   UNL     1      -1.927  -1.083  -5.183  1.00  0.00     0.210 HD
ENDBRANCH   4   5
BRANCH   4   7
ATOM      7  C   UNL     1      -0.895   1.057  -3.002  1.00  0.00     0.067 C 
BRANCH   7   8
ATOM      8  C   UNL     1       0.642   0.997  -2.944  1.00  0.00     0.154 C 
BRANCH   8   9
ATOM      9  O   UNL     1       1.177   0.683  -4.232  1.00  0.00    -0.389 OA
ATOM     10  H   UNL     1       0.460   0.235  -4.731  1.00  0.00     0.211 HD
ENDBRANCH   8   9
BRANCH   8  11
ATOM     11  C   UNL     1       1.142  -0.056  -1.947  1.00  0.00     0.264 C 
BRANCH  11  12
ATOM     12  O   UNL     1       0.703  -1.367  -2.338  1.00  0.00    -0.463 OA
BRANCH  12  13
ATOM     13  C   UNL     1       0.638  -2.305  -1.358  1.00  0.00     0.302 C 
ATOM     14  O   UNL     1      -0.147  -2.311  -0.421  1.00  0.00    -0.253 OA
ATOM     15  C   UNL     1       1.695  -3.342  -1.577  1.00  0.00     0.139 C 
ENDBRANCH  12  13
ENDBRANCH  11  12
ENDBRANCH   8  11
ENDBRANCH   7   8
ENDBRANCH   4   7
ENDBRANCH   3   4
ENDBRANCH   2   3
ENDBRANCH   1   2
BRANCH   1  16
ATOM     16  C   UNL     1      -5.890   1.782  -4.417  1.00  0.00     0.000 C 
BRANCH  16  17
ATOM     17  C   UNL     1      -6.542   3.160  -4.276  1.00  0.00     0.000 C 
BRANCH  17  18
ATOM     18  C   UNL     1      -5.565   4.320  -4.495  1.00  0.00     0.000 C 
BRANCH  18  19
ATOM     19  C   UNL     1      -5.498   5.355  -3.368  1.00  0.00     0.000 C 
BRANCH  19  20
ATOM     20  C   UNL     1      -4.551   5.016  -2.215  1.00  0.00     0.000 C 
BRANCH  20  21
ATOM     21  C   UNL     1      -5.213   4.442  -0.959  1.00  0.00     0.001 C 
BRANCH  21  22
ATOM     22  C   UNL     1      -4.263   3.591  -0.108  1.00  0.00     0.013 C 
BRANCH  22  23
ATOM     23  C   UNL     1      -2.887   3.413  -0.754  1.00  0.00     0.089 C 
ATOM     24  C   UNL     1      -1.993   2.576   0.057  1.00  0.00    -0.107 C 
ATOM     25  C   UNL     1      -1.256   1.886   0.711  1.00  0.00     0.004 C 
ENDBRANCH  22  23
ENDBRANCH  21  22
ENDBRANCH  20  21
ENDBRANCH  19  20
ENDBRANCH  18  19
ENDBRANCH  17  18
ENDBRANCH  16  17
ENDBRANCH   1  16
TORSDOF 18
ENDMDL
