MODEL 1
REMARK VINA RESULT:    -8.141      0.000      0.000
REMARK INTER + INTRA:         -12.332
REMARK INTER:                 -10.997
REMARK INTRA:                  -1.335
REMARK UNBOUND:                -1.335
REMARK SMILES C[C@@H]1O[C@@H](Oc2c(-c3ccc(O)cc3)oc3cc(O)cc(O)c3c2=O)[C@H](O)[C@H](O)[C@H]1O
REMARK SMILES IDX 15 1 25 2 6 3 7 4 24 5 23 6 16 7 21 8 17 9 20 10 18 11 5 12
REMARK SMILES IDX 4 13 3 14 2 15 30 16 26 17 28 18 1 19 31 20 27 22 29 24 8 26
REMARK SMILES IDX 9 27 14 28 10 29 13 30 11 31 12 32 22 34 19 36
REMARK H PARENT 31 21 27 23 29 25 12 33 22 35 19 37
ROOT
ATOM      1  O   UNL     1      -0.112  -1.109  -4.427  1.00  0.00    -0.452 OA
ATOM      2  O   UNL     1      -0.473  -0.516  -0.411  1.00  0.00    -0.285 OA
ATOM      3  C   UNL     1      -0.916   0.261  -2.604  1.00  0.00     0.214 A 
ATOM      4  C   UNL     1      -0.756   0.007  -3.915  1.00  0.00     0.180 A 
ATOM      5  C   UNL     1      -0.359  -0.695  -1.616  1.00  0.00     0.239 A 
ATOM      6  C   UNL     1       0.334  -1.870  -2.165  1.00  0.00     0.111 A 
ATOM      7  C   UNL     1       0.421  -2.016  -3.547  1.00  0.00     0.146 A 
ATOM      8  C   UNL     1       0.896  -2.828  -1.317  1.00  0.00     0.134 A 
ATOM      9  C   UNL     1       1.072  -3.123  -4.092  1.00  0.00     0.094 A 
ATOM     10  C   UNL     1       1.547  -3.934  -1.865  1.00  0.00     0.093 A 
ATOM     11  C   UNL     1       1.635  -4.082  -3.250  1.00  0.00     0.123 A 
ENDROOT
BRANCH   3  12
ATOM     12  O   UNL     1      -1.591   1.365  -2.128  1.00  0.00    -0.454 OA
BRANCH  12  13
ATOM     13  C   UNL     1      -2.939   1.056  -1.794  1.00  0.00     0.339 C 
ATOM     14  O   UNL     1      -3.863   1.481  -2.802  1.00  0.00    -0.335 OA
ATOM     15  C   UNL     1      -3.916   2.899  -2.988  1.00  0.00     0.151 C 
ATOM     16  C   UNL     1      -4.322   3.610  -1.689  1.00  0.00     0.174 C 
ATOM     17  C   UNL     1      -3.292   1.676  -0.445  1.00  0.00     0.214 C 
ATOM     18  C   UNL     1      -3.388   3.200  -0.552  1.00  0.00     0.180 C 
ATOM     19  C   UNL     1      -4.908   3.163  -4.118  1.00  0.00     0.042 C 
BRANCH  16  20
ATOM     20  O   UNL     1      -4.230   5.024  -1.851  1.00  0.00    -0.388 OA
ATOM     21  H   UNL     1      -4.272   5.431  -0.970  1.00  0.00     0.211 HD
ENDBRANCH  16  20
BRANCH  17  22
ATOM     22  O   UNL     1      -4.549   1.138  -0.032  1.00  0.00    -0.384 OA
ATOM     23  H   UNL     1      -5.236   1.783  -0.269  1.00  0.00     0.211 HD
ENDBRANCH  17  22
BRANCH  18  24
ATOM     24  O   UNL     1      -3.873   3.743   0.673  1.00  0.00    -0.387 OA
ATOM     25  H   UNL     1      -4.125   4.668   0.508  1.00  0.00     0.211 HD
ENDBRANCH  18  24
ENDBRANCH  12  13
ENDBRANCH   3  12
BRANCH   4  26
ATOM     26  C   UNL     1      -1.282   0.897  -4.964  1.00  0.00     0.021 A 
ATOM     27  C   UNL     1      -0.654   2.116  -5.226  1.00  0.00     0.016 A 
ATOM     28  C   UNL     1      -2.409   0.523  -5.696  1.00  0.00     0.016 A 
ATOM     29  C   UNL     1      -1.153   2.959  -6.220  1.00  0.00     0.047 A 
ATOM     30  C   UNL     1      -2.908   1.366  -6.690  1.00  0.00     0.047 A 
ATOM     31  C   UNL     1      -2.280   2.583  -6.952  1.00  0.00     0.115 A 
BRANCH  31  32
ATOM     32  O   UNL     1      -2.766   3.405  -7.922  1.00  0.00    -0.508 OA
ATOM     33  H   UNL     1      -3.173   4.182  -7.501  1.00  0.00     0.293 HD
ENDBRANCH  31  32
ENDBRANCH   4  26
BRANCH   8  34
ATOM     34  O   UNL     1       0.838  -2.732   0.040  1.00  0.00    -0.507 OA
ATOM     35  H   UNL     1       0.386  -1.907   0.288  1.00  0.00     0.293 HD
ENDBRANCH   8  34
BRANCH  11  36
ATOM     36  O   UNL     1       2.271  -5.163  -3.779  1.00  0.00    -0.508 OA
ATOM     37  H   UNL     1       1.931  -5.322  -4.676  1.00  0.00     0.293 HD
ENDBRANCH  11  36
TORSDOF 9
ENDMDL
MODEL 2
REMARK VINA RESULT:    -8.090      2.544      7.373
REMARK INTER + INTRA:         -12.263
REMARK INTER:                 -11.109
REMARK INTRA:                  -1.154
REMARK UNBOUND:                -1.335
REMARK SMILES C[C@@H]1O[C@@H](Oc2c(-c3ccc(O)cc3)oc3cc(O)cc(O)c3c2=O)[C@H](O)[C@H](O)[C@H]1O
REMARK SMILES IDX 15 1 25 2 6 3 7 4 24 5 23 6 16 7 21 8 17 9 20 10 18 11 5 12
REMARK SMILES IDX 4 13 3 14 2 15 30 16 26 17 28 18 1 19 31 20 27 22 29 24 8 26
REMARK SMILES IDX 9 27 14 28 10 29 13 30 11 31 12 32 22 34 19 36
REMARK H PARENT 31 21 27 23 29 25 12 33 22 35 19 37
ROOT
ATOM      1  O   UNL     1      -5.568   2.795  -5.348  1.00  0.00    -0.452 OA
ATOM      2  O   UNL     1      -2.066   1.595  -7.054  1.00  0.00    -0.285 OA
ATOM      3  C   UNL     1      -3.230   2.232  -5.092  1.00  0.00     0.214 A 
ATOM      4  C   UNL     1      -4.416   2.631  -4.595  1.00  0.00     0.180 A 
ATOM      5  C   UNL     1      -3.118   1.960  -6.545  1.00  0.00     0.239 A 
ATOM      6  C   UNL     1      -4.341   2.149  -7.340  1.00  0.00     0.111 A 
ATOM      7  C   UNL     1      -5.507   2.558  -6.697  1.00  0.00     0.146 A 
ATOM      8  C   UNL     1      -4.338   1.921  -8.719  1.00  0.00     0.134 A 
ATOM      9  C   UNL     1      -6.679   2.742  -7.429  1.00  0.00     0.094 A 
ATOM     10  C   UNL     1      -5.513   2.106  -9.449  1.00  0.00     0.093 A 
ATOM     11  C   UNL     1      -6.681   2.516  -8.805  1.00  0.00     0.123 A 
ENDROOT
BRANCH   3  12
ATOM     12  O   UNL     1      -2.111   2.046  -4.309  1.00  0.00    -0.454 OA
BRANCH  12  13
ATOM     13  C   UNL     1      -2.003   0.702  -3.853  1.00  0.00     0.339 C 
ATOM     14  O   UNL     1      -2.125   0.598  -2.430  1.00  0.00    -0.335 OA
ATOM     15  C   UNL     1      -1.079   1.248  -1.702  1.00  0.00     0.151 C 
ATOM     16  C   UNL     1       0.294   0.666  -2.071  1.00  0.00     0.174 C 
ATOM     17  C   UNL     1      -0.681   0.102  -4.326  1.00  0.00     0.214 C 
ATOM     18  C   UNL     1       0.501   0.729  -3.584  1.00  0.00     0.180 C 
ATOM     19  C   UNL     1      -1.393   1.073  -0.219  1.00  0.00     0.042 C 
BRANCH  16  20
ATOM     20  O   UNL     1       1.333   1.419  -1.450  1.00  0.00    -0.388 OA
ATOM     21  H   UNL     1       2.170   0.942  -1.579  1.00  0.00     0.211 HD
ENDBRANCH  16  20
BRANCH  17  22
ATOM     22  O   UNL     1      -0.725  -1.303  -4.070  1.00  0.00    -0.384 OA
ATOM     23  H   UNL     1       0.167  -1.657  -4.227  1.00  0.00     0.211 HD
ENDBRANCH  17  22
BRANCH  18  24
ATOM     24  O   UNL     1       1.705   0.045  -3.922  1.00  0.00    -0.387 OA
ATOM     25  H   UNL     1       2.294   0.682  -4.361  1.00  0.00     0.211 HD
ENDBRANCH  18  24
ENDBRANCH  12  13
ENDBRANCH   3  12
BRANCH   4  26
ATOM     26  C   UNL     1      -4.619   2.915  -3.164  1.00  0.00     0.021 A 
ATOM     27  C   UNL     1      -4.219   4.142  -2.632  1.00  0.00     0.016 A 
ATOM     28  C   UNL     1      -5.212   1.959  -2.340  1.00  0.00     0.016 A 
ATOM     29  C   UNL     1      -4.411   4.411  -1.276  1.00  0.00     0.047 A 
ATOM     30  C   UNL     1      -5.405   2.228  -0.984  1.00  0.00     0.047 A 
ATOM     31  C   UNL     1      -5.005   3.454  -0.453  1.00  0.00     0.115 A 
BRANCH  31  32
ATOM     32  O   UNL     1      -5.194   3.718   0.869  1.00  0.00    -0.508 OA
ATOM     33  H   UNL     1      -5.061   2.897   1.375  1.00  0.00     0.293 HD
ENDBRANCH  31  32
ENDBRANCH   4  26
BRANCH   8  34
ATOM     34  O   UNL     1      -3.226   1.520  -9.395  1.00  0.00    -0.507 OA
ATOM     35  H   UNL     1      -2.433   1.744  -8.878  1.00  0.00     0.293 HD
ENDBRANCH   8  34
BRANCH  11  36
ATOM     36  O   UNL     1      -7.825   2.696  -9.523  1.00  0.00    -0.508 OA
ATOM     37  H   UNL     1      -8.329   3.431  -9.135  1.00  0.00     0.293 HD
ENDBRANCH  11  36
TORSDOF 9
ENDMDL
MODEL 3
REMARK VINA RESULT:    -8.044      2.164      6.216
REMARK INTER + INTRA:         -12.201
REMARK INTER:                 -11.054
REMARK INTRA:                  -1.147
REMARK UNBOUND:                -1.335
REMARK SMILES C[C@@H]1O[C@@H](Oc2c(-c3ccc(O)cc3)oc3cc(O)cc(O)c3c2=O)[C@H](O)[C@H](O)[C@H]1O
REMARK SMILES IDX 15 1 25 2 6 3 7 4 24 5 23 6 16 7 21 8 17 9 20 10 18 11 5 12
REMARK SMILES IDX 4 13 3 14 2 15 30 16 26 17 28 18 1 19 31 20 27 22 29 24 8 26
REMARK SMILES IDX 9 27 14 28 10 29 13 30 11 31 12 32 22 34 19 36
REMARK H PARENT 31 21 27 23 29 25 12 33 22 35 19 37
ROOT
ATOM      1  O   UNL     1      -2.458   0.792  -5.350  1.00  0.00    -0.452 OA
ATOM      2  O   UNL     1      -5.706   2.871  -4.032  1.00  0.00    -0.285 OA
ATOM      3  C   UNL     1      -3.773   1.613  -3.494  1.00  0.00     0.214 A 
ATOM      4  C   UNL     1      -2.725   0.936  -3.997  1.00  0.00     0.180 A 
ATOM      5  C   UNL     1      -4.734   2.244  -4.431  1.00  0.00     0.239 A 
ATOM      6  C   UNL     1      -4.453   2.076  -5.864  1.00  0.00     0.111 A 
ATOM      7  C   UNL     1      -3.324   1.357  -6.250  1.00  0.00     0.146 A 
ATOM      8  C   UNL     1      -5.300   2.630  -6.828  1.00  0.00     0.134 A 
ATOM      9  C   UNL     1      -3.035   1.186  -7.604  1.00  0.00     0.094 A 
ATOM     10  C   UNL     1      -5.008   2.458  -8.182  1.00  0.00     0.093 A 
ATOM     11  C   UNL     1      -3.878   1.736  -8.569  1.00  0.00     0.123 A 
ENDROOT
BRANCH   3  12
ATOM     12  O   UNL     1      -3.992   1.765  -2.141  1.00  0.00    -0.454 OA
BRANCH  12  13
ATOM     13  C   UNL     1      -3.525   3.024  -1.670  1.00  0.00     0.339 C 
ATOM     14  O   UNL     1      -2.381   2.898  -0.818  1.00  0.00    -0.335 OA
ATOM     15  C   UNL     1      -2.634   2.194   0.402  1.00  0.00     0.151 C 
ATOM     16  C   UNL     1      -3.724   2.894   1.227  1.00  0.00     0.174 C 
ATOM     17  C   UNL     1      -4.655   3.757  -0.950  1.00  0.00     0.214 C 
ATOM     18  C   UNL     1      -4.983   3.080   0.382  1.00  0.00     0.180 C 
ATOM     19  C   UNL     1      -1.308   2.118   1.155  1.00  0.00     0.042 C 
BRANCH  16  20
ATOM     20  O   UNL     1      -4.065   2.105   2.365  1.00  0.00    -0.388 OA
ATOM     21  H   UNL     1      -4.697   1.424   2.081  1.00  0.00     0.211 HD
ENDBRANCH  16  20
BRANCH  17  22
ATOM     22  O   UNL     1      -4.227   5.100  -0.720  1.00  0.00    -0.384 OA
ATOM     23  H   UNL     1      -3.714   5.381  -1.496  1.00  0.00     0.211 HD
ENDBRANCH  17  22
BRANCH  18  24
ATOM     24  O   UNL     1      -5.924   3.867   1.108  1.00  0.00    -0.387 OA
ATOM     25  H   UNL     1      -5.457   4.266   1.862  1.00  0.00     0.211 HD
ENDBRANCH  18  24
ENDBRANCH  12  13
ENDBRANCH   3  12
BRANCH   4  26
ATOM     26  C   UNL     1      -1.718   0.285  -3.140  1.00  0.00     0.021 A 
ATOM     27  C   UNL     1      -1.916  -1.025  -2.702  1.00  0.00     0.016 A 
ATOM     28  C   UNL     1      -0.567   0.978  -2.767  1.00  0.00     0.016 A 
ATOM     29  C   UNL     1      -0.961  -1.641  -1.891  1.00  0.00     0.047 A 
ATOM     30  C   UNL     1       0.388   0.363  -1.957  1.00  0.00     0.047 A 
ATOM     31  C   UNL     1       0.190  -0.947  -1.518  1.00  0.00     0.115 A 
BRANCH  31  32
ATOM     32  O   UNL     1       1.121  -1.548  -0.728  1.00  0.00    -0.508 OA
ATOM     33  H   UNL     1       0.738  -2.360  -0.354  1.00  0.00     0.293 HD
ENDBRANCH  31  32
ENDBRANCH   4  26
BRANCH   8  34
ATOM     34  O   UNL     1      -6.415   3.342  -6.504  1.00  0.00    -0.507 OA
ATOM     35  H   UNL     1      -6.312   4.261  -6.806  1.00  0.00     0.293 HD
ENDBRANCH   8  34
BRANCH  11  36
ATOM     36  O   UNL     1      -3.598   1.571  -9.891  1.00  0.00    -0.508 OA
ATOM     37  H   UNL     1      -2.636   1.638 -10.021  1.00  0.00     0.293 HD
ENDBRANCH  11  36
TORSDOF 9
ENDMDL
MODEL 4
REMARK VINA RESULT:    -7.953      1.830      4.719
REMARK INTER + INTRA:         -12.078
REMARK INTER:                 -11.079
REMARK INTRA:                  -0.998
REMARK UNBOUND:                -1.335
REMARK SMILES C[C@@H]1O[C@@H](Oc2c(-c3ccc(O)cc3)oc3cc(O)cc(O)c3c2=O)[C@H](O)[C@H](O)[C@H]1O
REMARK SMILES IDX 15 1 25 2 6 3 7 4 24 5 23 6 16 7 21 8 17 9 20 10 18 11 5 12
REMARK SMILES IDX 4 13 3 14 2 15 30 16 26 17 28 18 1 19 31 20 27 22 29 24 8 26
REMARK SMILES IDX 9 27 14 28 10 29 13 30 11 31 12 32 22 34 19 36
REMARK H PARENT 31 21 27 23 29 25 12 33 22 35 19 37
ROOT
ATOM      1  O   UNL     1      -0.134  -0.128  -0.709  1.00  0.00    -0.452 OA
ATOM      2  O   UNL     1      -1.084  -0.762  -4.621  1.00  0.00    -0.285 OA
ATOM      3  C   UNL     1      -1.651   0.246  -2.555  1.00  0.00     0.214 A 
ATOM      4  C   UNL     1      -1.281   0.410  -1.271  1.00  0.00     0.180 A 
ATOM      5  C   UNL     1      -0.798  -0.577  -3.445  1.00  0.00     0.239 A 
ATOM      6  C   UNL     1       0.410  -1.156  -2.840  1.00  0.00     0.111 A 
ATOM      7  C   UNL     1       0.681  -0.899  -1.497  1.00  0.00     0.146 A 
ATOM      8  C   UNL     1       1.278  -1.949  -3.594  1.00  0.00     0.134 A 
ATOM      9  C   UNL     1       1.821  -1.435  -0.900  1.00  0.00     0.094 A 
ATOM     10  C   UNL     1       2.419  -2.484  -2.995  1.00  0.00     0.093 A 
ATOM     11  C   UNL     1       2.690  -2.227  -1.650  1.00  0.00     0.123 A 
ENDROOT
BRANCH   3  12
ATOM     12  O   UNL     1      -2.783   0.822  -3.091  1.00  0.00    -0.454 OA
BRANCH  12  13
ATOM     13  C   UNL     1      -2.465   1.931  -3.926  1.00  0.00     0.339 C 
ATOM     14  O   UNL     1      -2.445   3.168  -3.206  1.00  0.00    -0.335 OA
ATOM     15  C   UNL     1      -3.713   3.552  -2.665  1.00  0.00     0.151 C 
ATOM     16  C   UNL     1      -4.763   3.704  -3.776  1.00  0.00     0.174 C 
ATOM     17  C   UNL     1      -3.451   2.000  -5.089  1.00  0.00     0.214 C 
ATOM     18  C   UNL     1      -4.840   2.422  -4.604  1.00  0.00     0.180 C 
ATOM     19  C   UNL     1      -3.496   4.856  -1.903  1.00  0.00     0.042 C 
BRANCH  16  20
ATOM     20  O   UNL     1      -6.050   3.943  -3.209  1.00  0.00    -0.388 OA
ATOM     21  H   UNL     1      -6.672   3.303  -3.593  1.00  0.00     0.211 HD
ENDBRANCH  16  20
BRANCH  17  22
ATOM     22  O   UNL     1      -2.953   2.955  -6.028  1.00  0.00    -0.384 OA
ATOM     23  H   UNL     1      -3.563   3.711  -6.028  1.00  0.00     0.211 HD
ENDBRANCH  17  22
BRANCH  18  24
ATOM     24  O   UNL     1      -5.700   2.635  -5.721  1.00  0.00    -0.387 OA
ATOM     25  H   UNL     1      -6.617   2.588  -5.401  1.00  0.00     0.211 HD
ENDBRANCH  18  24
ENDBRANCH  12  13
ENDBRANCH   3  12
BRANCH   4  26
ATOM     26  C   UNL     1      -2.064   1.217  -0.319  1.00  0.00     0.021 A 
ATOM     27  C   UNL     1      -3.443   1.029  -0.213  1.00  0.00     0.016 A 
ATOM     28  C   UNL     1      -1.428   2.169   0.477  1.00  0.00     0.016 A 
ATOM     29  C   UNL     1      -4.184   1.794   0.689  1.00  0.00     0.047 A 
ATOM     30  C   UNL     1      -2.169   2.933   1.380  1.00  0.00     0.047 A 
ATOM     31  C   UNL     1      -3.547   2.746   1.485  1.00  0.00     0.115 A 
BRANCH  31  32
ATOM     32  O   UNL     1      -4.269   3.490   2.365  1.00  0.00    -0.508 OA
ATOM     33  H   UNL     1      -5.057   2.985   2.632  1.00  0.00     0.293 HD
ENDBRANCH  31  32
ENDBRANCH   4  26
BRANCH   8  34
ATOM     34  O   UNL     1       1.061  -2.230  -4.909  1.00  0.00    -0.507 OA
ATOM     35  H   UNL     1       1.868  -2.607  -5.299  1.00  0.00     0.293 HD
ENDBRANCH   8  34
BRANCH  11  36
ATOM     36  O   UNL     1       3.805  -2.752  -1.069  1.00  0.00    -0.508 OA
ATOM     37  H   UNL     1       3.929  -3.662  -1.389  1.00  0.00     0.293 HD
ENDBRANCH  11  36
TORSDOF 9
ENDMDL
MODEL 5
REMARK VINA RESULT:    -7.863      2.307      3.530
REMARK INTER + INTRA:         -11.956
REMARK INTER:                 -10.613
REMARK INTRA:                  -1.342
REMARK UNBOUND:                -1.335
REMARK SMILES C[C@@H]1O[C@@H](Oc2c(-c3ccc(O)cc3)oc3cc(O)cc(O)c3c2=O)[C@H](O)[C@H](O)[C@H]1O
REMARK SMILES IDX 15 1 25 2 6 3 7 4 24 5 23 6 16 7 21 8 17 9 20 10 18 11 5 12
REMARK SMILES IDX 4 13 3 14 2 15 30 16 26 17 28 18 1 19 31 20 27 22 29 24 8 26
REMARK SMILES IDX 9 27 14 28 10 29 13 30 11 31 12 32 22 34 19 36
REMARK H PARENT 31 21 27 23 29 25 12 33 22 35 19 37
ROOT
ATOM      1  O   UNL     1      -1.165   0.702  -5.054  1.00  0.00    -0.452 OA
ATOM      2  O   UNL     1      -2.269   2.954  -1.842  1.00  0.00    -0.285 OA
ATOM      3  C   UNL     1      -2.597   2.414  -4.124  1.00  0.00     0.214 A 
ATOM      4  C   UNL     1      -2.179   1.643  -5.145  1.00  0.00     0.180 A 
ATOM      5  C   UNL     1      -1.932   2.279  -2.806  1.00  0.00     0.239 A 
ATOM      6  C   UNL     1      -0.849   1.289  -2.719  1.00  0.00     0.111 A 
ATOM      7  C   UNL     1      -0.521   0.548  -3.853  1.00  0.00     0.146 A 
ATOM      8  C   UNL     1      -0.158   1.088  -1.522  1.00  0.00     0.134 A 
ATOM      9  C   UNL     1       0.502  -0.398  -3.796  1.00  0.00     0.094 A 
ATOM     10  C   UNL     1       0.865   0.140  -1.467  1.00  0.00     0.093 A 
ATOM     11  C   UNL     1       1.194  -0.601  -2.603  1.00  0.00     0.123 A 
ENDROOT
BRANCH   3  12
ATOM     12  O   UNL     1      -3.631   3.318  -4.240  1.00  0.00    -0.454 OA
BRANCH  12  13
ATOM     13  C   UNL     1      -4.856   2.784  -3.748  1.00  0.00     0.339 C 
ATOM     14  O   UNL     1      -5.706   2.312  -4.799  1.00  0.00    -0.335 OA
ATOM     15  C   UNL     1      -6.160   3.334  -5.691  1.00  0.00     0.151 C 
ATOM     16  C   UNL     1      -6.949   4.414  -4.937  1.00  0.00     0.174 C 
ATOM     17  C   UNL     1      -5.575   3.834  -2.905  1.00  0.00     0.214 C 
ATOM     18  C   UNL     1      -6.113   4.966  -3.783  1.00  0.00     0.180 C 
ATOM     19  C   UNL     1      -7.007   2.649  -6.761  1.00  0.00     0.042 C 
BRANCH  16  20
ATOM     20  O   UNL     1      -7.268   5.494  -5.811  1.00  0.00    -0.388 OA
ATOM     21  H   UNL     1      -6.511   5.635  -6.404  1.00  0.00     0.211 HD
ENDBRANCH  16  20
BRANCH  17  22
ATOM     22  O   UNL     1      -6.656   3.187  -2.231  1.00  0.00    -0.384 OA
ATOM     23  H   UNL     1      -6.783   3.638  -1.380  1.00  0.00     0.211 HD
ENDBRANCH  17  22
BRANCH  18  24
ATOM     24  O   UNL     1      -6.915   5.848  -3.002  1.00  0.00    -0.387 OA
ATOM     25  H   UNL     1      -7.761   5.968  -3.466  1.00  0.00     0.211 HD
ENDBRANCH  18  24
ENDBRANCH  12  13
ENDBRANCH   3  12
BRANCH   4  26
ATOM     26  C   UNL     1      -2.787   1.705  -6.485  1.00  0.00     0.021 A 
ATOM     27  C   UNL     1      -2.602   2.835  -7.284  1.00  0.00     0.016 A 
ATOM     28  C   UNL     1      -3.547   0.636  -6.957  1.00  0.00     0.016 A 
ATOM     29  C   UNL     1      -3.178   2.893  -8.554  1.00  0.00     0.047 A 
ATOM     30  C   UNL     1      -4.123   0.694  -8.226  1.00  0.00     0.047 A 
ATOM     31  C   UNL     1      -3.938   1.822  -9.025  1.00  0.00     0.115 A 
BRANCH  31  32
ATOM     32  O   UNL     1      -4.499   1.879 -10.263  1.00  0.00    -0.508 OA
ATOM     33  H   UNL     1      -4.804   2.788 -10.429  1.00  0.00     0.293 HD
ENDBRANCH  31  32
ENDBRANCH   4  26
BRANCH   8  34
ATOM     34  O   UNL     1      -0.440   1.785  -0.386  1.00  0.00    -0.507 OA
ATOM     35  H   UNL     1      -1.197   2.374  -0.546  1.00  0.00     0.293 HD
ENDBRANCH   8  34
BRANCH  11  36
ATOM     36  O   UNL     1       2.193  -1.525  -2.545  1.00  0.00    -0.508 OA
ATOM     37  H   UNL     1       2.706  -1.488  -3.370  1.00  0.00     0.293 HD
ENDBRANCH  11  36
TORSDOF 9
ENDMDL
MODEL 6
REMARK VINA RESULT:    -7.741      3.220      8.063
REMARK INTER + INTRA:         -11.792
REMARK INTER:                 -10.437
REMARK INTRA:                  -1.354
REMARK UNBOUND:                -1.335
REMARK SMILES C[C@@H]1O[C@@H](Oc2c(-c3ccc(O)cc3)oc3cc(O)cc(O)c3c2=O)[C@H](O)[C@H](O)[C@H]1O
REMARK SMILES IDX 15 1 25 2 6 3 7 4 24 5 23 6 16 7 21 8 17 9 20 10 18 11 5 12
REMARK SMILES IDX 4 13 3 14 2 15 30 16 26 17 28 18 1 19 31 20 27 22 29 24 8 26
REMARK SMILES IDX 9 27 14 28 10 29 13 30 11 31 12 32 22 34 19 36
REMARK H PARENT 31 21 27 23 29 25 12 33 22 35 19 37
ROOT
ATOM      1  O   UNL     1      -7.145   3.715  -4.875  1.00  0.00    -0.452 OA
ATOM      2  O   UNL     1      -6.741   4.416  -0.880  1.00  0.00    -0.285 OA
ATOM      3  C   UNL     1      -5.992   3.250  -2.800  1.00  0.00     0.214 A 
ATOM      4  C   UNL     1      -6.184   3.061  -4.119  1.00  0.00     0.180 A 
ATOM      5  C   UNL     1      -6.867   4.205  -2.079  1.00  0.00     0.239 A 
ATOM      6  C   UNL     1      -7.893   4.885  -2.883  1.00  0.00     0.111 A 
ATOM      7  C   UNL     1      -7.978   4.604  -4.245  1.00  0.00     0.146 A 
ATOM      8  C   UNL     1      -8.770   5.802  -2.297  1.00  0.00     0.134 A 
ATOM      9  C   UNL     1      -8.941   5.238  -5.030  1.00  0.00     0.094 A 
ATOM     10  C   UNL     1      -9.733   6.434  -3.084  1.00  0.00     0.093 A 
ATOM     11  C   UNL     1      -9.818   6.153  -4.448  1.00  0.00     0.123 A 
ENDROOT
BRANCH   3  12
ATOM     12  O   UNL     1      -5.005   2.607  -2.084  1.00  0.00    -0.454 OA
BRANCH  12  13
ATOM     13  C   UNL     1      -3.846   3.421  -1.935  1.00  0.00     0.339 C 
ATOM     14  O   UNL     1      -2.824   3.092  -2.881  1.00  0.00    -0.335 OA
ATOM     15  C   UNL     1      -2.287   1.774  -2.731  1.00  0.00     0.151 C 
ATOM     16  C   UNL     1      -1.675   1.583  -1.336  1.00  0.00     0.174 C 
ATOM     17  C   UNL     1      -3.317   3.308  -0.508  1.00  0.00     0.214 C 
ATOM     18  C   UNL     1      -2.705   1.927  -0.260  1.00  0.00     0.180 C 
ATOM     19  C   UNL     1      -1.254   1.585  -3.839  1.00  0.00     0.042 C 
BRANCH  16  20
ATOM     20  O   UNL     1      -1.278   0.227  -1.152  1.00  0.00    -0.388 OA
ATOM     21  H   UNL     1      -2.044  -0.269  -0.817  1.00  0.00     0.211 HD
ENDBRANCH  16  20
BRANCH  17  22
ATOM     22  O   UNL     1      -2.323   4.319  -0.330  1.00  0.00    -0.384 OA
ATOM     23  H   UNL     1      -1.715   4.013   0.365  1.00  0.00     0.211 HD
ENDBRANCH  17  22
BRANCH  18  24
ATOM     24  O   UNL     1      -2.076   1.897   1.019  1.00  0.00    -0.387 OA
ATOM     25  H   UNL     1      -2.768   1.752   1.686  1.00  0.00     0.211 HD
ENDBRANCH  18  24
ENDBRANCH  12  13
ENDBRANCH   3  12
BRANCH   4  26
ATOM     26  C   UNL     1      -5.356   2.139  -4.915  1.00  0.00     0.021 A 
ATOM     27  C   UNL     1      -5.432   0.763  -4.691  1.00  0.00     0.016 A 
ATOM     28  C   UNL     1      -4.497   2.639  -5.893  1.00  0.00     0.016 A 
ATOM     29  C   UNL     1      -4.648  -0.111  -5.446  1.00  0.00     0.047 A 
ATOM     30  C   UNL     1      -3.713   1.765  -6.648  1.00  0.00     0.047 A 
ATOM     31  C   UNL     1      -3.789   0.390  -6.424  1.00  0.00     0.115 A 
BRANCH  31  32
ATOM     32  O   UNL     1      -3.026  -0.462  -7.160  1.00  0.00    -0.508 OA
ATOM     33  H   UNL     1      -3.548  -0.777  -7.918  1.00  0.00     0.293 HD
ENDBRANCH  31  32
ENDBRANCH   4  26
BRANCH   8  34
ATOM     34  O   UNL     1      -8.729   6.112  -0.971  1.00  0.00    -0.507 OA
ATOM     35  H   UNL     1      -9.128   5.390  -0.456  1.00  0.00     0.293 HD
ENDBRANCH   8  34
BRANCH  11  36
ATOM     36  O   UNL     1     -10.760   6.773  -5.212  1.00  0.00    -0.508 OA
ATOM     37  H   UNL     1     -10.899   7.673  -4.873  1.00  0.00     0.293 HD
ENDBRANCH  11  36
TORSDOF 9
ENDMDL
MODEL 7
REMARK VINA RESULT:    -7.722      2.699      7.076
REMARK INTER + INTRA:         -11.766
REMARK INTER:                 -10.802
REMARK INTRA:                  -0.964
REMARK UNBOUND:                -1.335
REMARK SMILES C[C@@H]1O[C@@H](Oc2c(-c3ccc(O)cc3)oc3cc(O)cc(O)c3c2=O)[C@H](O)[C@H](O)[C@H]1O
REMARK SMILES IDX 15 1 25 2 6 3 7 4 24 5 23 6 16 7 21 8 17 9 20 10 18 11 5 12
REMARK SMILES IDX 4 13 3 14 2 15 30 16 26 17 28 18 1 19 31 20 27 22 29 24 8 26
REMARK SMILES IDX 9 27 14 28 10 29 13 30 11 31 12 32 22 34 19 36
REMARK H PARENT 31 21 27 23 29 25 12 33 22 35 19 37
ROOT
ATOM      1  O   UNL     1      -6.073   2.894  -4.682  1.00  0.00    -0.452 OA
ATOM      2  O   UNL     1      -3.971   3.451  -1.236  1.00  0.00    -0.285 OA
ATOM      3  C   UNL     1      -3.989   2.678  -3.475  1.00  0.00     0.214 A 
ATOM      4  C   UNL     1      -4.743   2.518  -4.578  1.00  0.00     0.180 A 
ATOM      5  C   UNL     1      -4.606   3.281  -2.268  1.00  0.00     0.239 A 
ATOM      6  C   UNL     1      -6.021   3.665  -2.381  1.00  0.00     0.111 A 
ATOM      7  C   UNL     1      -6.683   3.451  -3.588  1.00  0.00     0.146 A 
ATOM      8  C   UNL     1      -6.694   4.238  -1.299  1.00  0.00     0.134 A 
ATOM      9  C   UNL     1      -8.024   3.809  -3.721  1.00  0.00     0.094 A 
ATOM     10  C   UNL     1      -8.036   4.596  -1.435  1.00  0.00     0.093 A 
ATOM     11  C   UNL     1      -8.700   4.381  -2.643  1.00  0.00     0.123 A 
ENDROOT
BRANCH   3  12
ATOM     12  O   UNL     1      -2.659   2.323  -3.414  1.00  0.00    -0.454 OA
BRANCH  12  13
ATOM     13  C   UNL     1      -2.494   0.950  -3.076  1.00  0.00     0.339 C 
ATOM     14  O   UNL     1      -2.308   0.753  -1.671  1.00  0.00    -0.335 OA
ATOM     15  C   UNL     1      -1.110   1.337  -1.150  1.00  0.00     0.151 C 
ATOM     16  C   UNL     1       0.132   0.760  -1.845  1.00  0.00     0.174 C 
ATOM     17  C   UNL     1      -1.325   0.362  -3.862  1.00  0.00     0.214 C 
ATOM     18  C   UNL     1       0.007   0.920  -3.360  1.00  0.00     0.180 C 
ATOM     19  C   UNL     1      -1.100   1.069   0.353  1.00  0.00     0.042 C 
BRANCH  16  20
ATOM     20  O   UNL     1       1.303   1.454  -1.420  1.00  0.00    -0.388 OA
ATOM     21  H   UNL     1       2.075   0.908  -1.646  1.00  0.00     0.211 HD
ENDBRANCH  16  20
BRANCH  17  22
ATOM     22  O   UNL     1      -1.354  -1.056  -3.691  1.00  0.00    -0.384 OA
ATOM     23  H   UNL     1      -0.875  -1.262  -2.870  1.00  0.00     0.211 HD
ENDBRANCH  17  22
BRANCH  18  24
ATOM     24  O   UNL     1       1.089   0.241  -3.994  1.00  0.00    -0.387 OA
ATOM     25  H   UNL     1       0.846  -0.697  -4.070  1.00  0.00     0.211 HD
ENDBRANCH  18  24
ENDBRANCH  12  13
ENDBRANCH   3  12
BRANCH   4  26
ATOM     26  C   UNL     1      -4.211   1.936  -5.822  1.00  0.00     0.021 A 
ATOM     27  C   UNL     1      -3.614   2.760  -6.778  1.00  0.00     0.016 A 
ATOM     28  C   UNL     1      -4.302   0.563  -6.045  1.00  0.00     0.016 A 
ATOM     29  C   UNL     1      -3.110   2.208  -7.957  1.00  0.00     0.047 A 
ATOM     30  C   UNL     1      -3.797   0.011  -7.223  1.00  0.00     0.047 A 
ATOM     31  C   UNL     1      -3.201   0.834  -8.179  1.00  0.00     0.115 A 
BRANCH  31  32
ATOM     32  O   UNL     1      -2.708   0.296  -9.328  1.00  0.00    -0.508 OA
ATOM     33  H   UNL     1      -3.426   0.240  -9.982  1.00  0.00     0.293 HD
ENDBRANCH  31  32
ENDBRANCH   4  26
BRANCH   8  34
ATOM     34  O   UNL     1      -6.093   4.469  -0.099  1.00  0.00    -0.507 OA
ATOM     35  H   UNL     1      -6.711   4.253   0.621  1.00  0.00     0.293 HD
ENDBRANCH   8  34
BRANCH  11  36
ATOM     36  O   UNL     1     -10.010   4.731  -2.770  1.00  0.00    -0.508 OA
ATOM     37  H   UNL     1     -10.071   5.533  -3.317  1.00  0.00     0.293 HD
ENDBRANCH  11  36
TORSDOF 9
ENDMDL
MODEL 8
REMARK VINA RESULT:    -7.717      3.788      6.573
REMARK INTER + INTRA:         -11.760
REMARK INTER:                 -10.806
REMARK INTRA:                  -0.954
REMARK UNBOUND:                -1.335
REMARK SMILES C[C@@H]1O[C@@H](Oc2c(-c3ccc(O)cc3)oc3cc(O)cc(O)c3c2=O)[C@H](O)[C@H](O)[C@H]1O
REMARK SMILES IDX 15 1 25 2 6 3 7 4 24 5 23 6 16 7 21 8 17 9 20 10 18 11 5 12
REMARK SMILES IDX 4 13 3 14 2 15 30 16 26 17 28 18 1 19 31 20 27 22 29 24 8 26
REMARK SMILES IDX 9 27 14 28 10 29 13 30 11 31 12 32 22 34 19 36
REMARK H PARENT 31 21 27 23 29 25 12 33 22 35 19 37
ROOT
ATOM      1  O   UNL     1      -5.980   3.069  -6.031  1.00  0.00    -0.452 OA
ATOM      2  O   UNL     1      -3.378   0.737  -3.932  1.00  0.00    -0.285 OA
ATOM      3  C   UNL     1      -5.111   2.352  -3.891  1.00  0.00     0.214 A 
ATOM      4  C   UNL     1      -5.938   3.098  -4.646  1.00  0.00     0.180 A 
ATOM      5  C   UNL     1      -4.156   1.440  -4.565  1.00  0.00     0.239 A 
ATOM      6  C   UNL     1      -4.195   1.423  -6.035  1.00  0.00     0.111 A 
ATOM      7  C   UNL     1      -5.110   2.242  -6.694  1.00  0.00     0.146 A 
ATOM      8  C   UNL     1      -3.333   0.599  -6.764  1.00  0.00     0.134 A 
ATOM      9  C   UNL     1      -5.169   2.242  -8.087  1.00  0.00     0.094 A 
ATOM     10  C   UNL     1      -3.394   0.602  -8.158  1.00  0.00     0.093 A 
ATOM     11  C   UNL     1      -4.310   1.422  -8.818  1.00  0.00     0.123 A 
ENDROOT
BRANCH   3  12
ATOM     12  O   UNL     1      -5.117   2.381  -2.513  1.00  0.00    -0.454 OA
BRANCH  12  13
ATOM     13  C   UNL     1      -4.394   3.497  -2.006  1.00  0.00     0.339 C 
ATOM     14  O   UNL     1      -3.040   3.166  -1.678  1.00  0.00    -0.335 OA
ATOM     15  C   UNL     1      -2.909   2.214  -0.618  1.00  0.00     0.151 C 
ATOM     16  C   UNL     1      -3.561   2.733   0.673  1.00  0.00     0.174 C 
ATOM     17  C   UNL     1      -5.118   4.071  -0.790  1.00  0.00     0.214 C 
ATOM     18  C   UNL     1      -5.014   3.122   0.406  1.00  0.00     0.180 C 
ATOM     19  C   UNL     1      -1.416   1.951  -0.437  1.00  0.00     0.042 C 
BRANCH  16  20
ATOM     20  O   UNL     1      -3.550   1.718   1.674  1.00  0.00    -0.388 OA
ATOM     21  H   UNL     1      -4.263   1.088   1.473  1.00  0.00     0.211 HD
ENDBRANCH  16  20
BRANCH  17  22
ATOM     22  O   UNL     1      -4.508   5.323  -0.471  1.00  0.00    -0.384 OA
ATOM     23  H   UNL     1      -4.952   5.671   0.321  1.00  0.00     0.211 HD
ENDBRANCH  17  22
BRANCH  18  24
ATOM     24  O   UNL     1      -5.555   3.745   1.569  1.00  0.00    -0.387 OA
ATOM     25  H   UNL     1      -5.751   4.671   1.344  1.00  0.00     0.211 HD
ENDBRANCH  18  24
ENDBRANCH  12  13
ENDBRANCH   3  12
BRANCH   4  26
ATOM     26  C   UNL     1      -6.923   4.024  -4.060  1.00  0.00     0.021 A 
ATOM     27  C   UNL     1      -8.032   3.523  -3.377  1.00  0.00     0.016 A 
ATOM     28  C   UNL     1      -6.748   5.402  -4.188  1.00  0.00     0.016 A 
ATOM     29  C   UNL     1      -8.965   4.401  -2.823  1.00  0.00     0.047 A 
ATOM     30  C   UNL     1      -7.680   6.280  -3.633  1.00  0.00     0.047 A 
ATOM     31  C   UNL     1      -8.788   5.779  -2.951  1.00  0.00     0.115 A 
BRANCH  31  32
ATOM     32  O   UNL     1      -9.697   6.635  -2.409  1.00  0.00    -0.508 OA
ATOM     33  H   UNL     1     -10.312   6.923  -3.106  1.00  0.00     0.293 HD
ENDBRANCH  31  32
ENDBRANCH   4  26
BRANCH   8  34
ATOM     34  O   UNL     1      -2.422  -0.220  -6.169  1.00  0.00    -0.507 OA
ATOM     35  H   UNL     1      -2.299  -1.017  -6.712  1.00  0.00     0.293 HD
ENDBRANCH   8  34
BRANCH  11  36
ATOM     36  O   UNL     1      -4.365   1.421 -10.179  1.00  0.00    -0.508 OA
ATOM     37  H   UNL     1      -4.881   2.190 -10.475  1.00  0.00     0.293 HD
ENDBRANCH  11  36
TORSDOF 9
ENDMDL
MODEL 9
REMARK VINA RESULT:    -7.625      3.638      5.983
REMARK INTER + INTRA:         -11.635
REMARK INTER:                 -10.363
REMARK INTRA:                  -1.272
REMARK UNBOUND:                -1.335
REMARK SMILES C[C@@H]1O[C@@H](Oc2c(-c3ccc(O)cc3)oc3cc(O)cc(O)c3c2=O)[C@H](O)[C@H](O)[C@H]1O
REMARK SMILES IDX 15 1 25 2 6 3 7 4 24 5 23 6 16 7 21 8 17 9 20 10 18 11 5 12
REMARK SMILES IDX 4 13 3 14 2 15 30 16 26 17 28 18 1 19 31 20 27 22 29 24 8 26
REMARK SMILES IDX 9 27 14 28 10 29 13 30 11 31 12 32 22 34 19 36
REMARK H PARENT 31 21 27 23 29 25 12 33 22 35 19 37
ROOT
ATOM      1  O   UNL     1      -2.710   1.855  -3.307  1.00  0.00    -0.452 OA
ATOM      2  O   UNL     1      -5.647   4.420  -2.121  1.00  0.00    -0.285 OA
ATOM      3  C   UNL     1      -4.636   3.199  -3.881  1.00  0.00     0.214 A 
ATOM      4  C   UNL     1      -3.639   2.356  -4.205  1.00  0.00     0.180 A 
ATOM      5  C   UNL     1      -4.761   3.653  -2.475  1.00  0.00     0.239 A 
ATOM      6  C   UNL     1      -3.764   3.128  -1.529  1.00  0.00     0.111 A 
ATOM      7  C   UNL     1      -2.787   2.253  -1.997  1.00  0.00     0.146 A 
ATOM      8  C   UNL     1      -3.794   3.498  -0.182  1.00  0.00     0.134 A 
ATOM      9  C   UNL     1      -1.832   1.740  -1.119  1.00  0.00     0.094 A 
ATOM     10  C   UNL     1      -2.837   2.983   0.694  1.00  0.00     0.093 A 
ATOM     11  C   UNL     1      -1.858   2.106   0.226  1.00  0.00     0.123 A 
ENDROOT
BRANCH   3  12
ATOM     12  O   UNL     1      -5.564   3.654  -4.793  1.00  0.00    -0.454 OA
BRANCH  12  13
ATOM     13  C   UNL     1      -6.679   2.774  -4.894  1.00  0.00     0.339 C 
ATOM     14  O   UNL     1      -6.679   2.030  -6.116  1.00  0.00    -0.335 OA
ATOM     15  C   UNL     1      -6.821   2.833  -7.292  1.00  0.00     0.151 C 
ATOM     16  C   UNL     1      -8.134   3.628  -7.261  1.00  0.00     0.174 C 
ATOM     17  C   UNL     1      -7.976   3.567  -4.746  1.00  0.00     0.214 C 
ATOM     18  C   UNL     1      -8.221   4.447  -5.974  1.00  0.00     0.180 C 
ATOM     19  C   UNL     1      -6.755   1.887  -8.489  1.00  0.00     0.042 C 
BRANCH  16  20
ATOM     20  O   UNL     1      -8.192   4.529  -8.365  1.00  0.00    -0.388 OA
ATOM     21  H   UNL     1      -8.809   5.245  -8.137  1.00  0.00     0.211 HD
ENDBRANCH  16  20
BRANCH  17  22
ATOM     22  O   UNL     1      -9.045   2.630  -4.599  1.00  0.00    -0.384 OA
ATOM     23  H   UNL     1      -9.781   2.937  -5.154  1.00  0.00     0.211 HD
ENDBRANCH  17  22
BRANCH  18  24
ATOM     24  O   UNL     1      -9.509   5.052  -5.888  1.00  0.00    -0.387 OA
ATOM     25  H   UNL     1      -9.497   5.853  -6.439  1.00  0.00     0.211 HD
ENDBRANCH  18  24
ENDBRANCH  12  13
ENDBRANCH   3  12
BRANCH   4  26
ATOM     26  C   UNL     1      -3.445   1.849  -5.575  1.00  0.00     0.021 A 
ATOM     27  C   UNL     1      -3.064   2.722  -6.595  1.00  0.00     0.016 A 
ATOM     28  C   UNL     1      -3.642   0.497  -5.853  1.00  0.00     0.016 A 
ATOM     29  C   UNL     1      -2.880   2.241  -7.893  1.00  0.00     0.047 A 
ATOM     30  C   UNL     1      -3.458   0.016  -7.150  1.00  0.00     0.047 A 
ATOM     31  C   UNL     1      -3.077   0.888  -8.170  1.00  0.00     0.115 A 
BRANCH  31  32
ATOM     32  O   UNL     1      -2.898   0.420  -9.434  1.00  0.00    -0.508 OA
ATOM     33  H   UNL     1      -3.571   0.814 -10.014  1.00  0.00     0.293 HD
ENDBRANCH  31  32
ENDBRANCH   4  26
BRANCH   8  34
ATOM     34  O   UNL     1      -4.728   4.349   0.326  1.00  0.00    -0.507 OA
ATOM     35  H   UNL     1      -5.021   4.962  -0.371  1.00  0.00     0.293 HD
ENDBRANCH   8  34
BRANCH  11  36
ATOM     36  O   UNL     1      -0.926   1.608   1.085  1.00  0.00    -0.508 OA
ATOM     37  H   UNL     1      -0.430   0.901   0.637  1.00  0.00     0.293 HD
ENDBRANCH  11  36
TORSDOF 9
ENDMDL
