MODEL 1
REMARK VINA RESULT:    -7.542      0.000      0.000
REMARK INTER + INTRA:          -9.390
REMARK INTER:                  -9.085
REMARK INTRA:                  -0.305
REMARK UNBOUND:                -0.305
REMARK SMILES O=c1c(O)c(-c2ccc(O)c(O)c2)oc2cc(O)cc(O)c12
REMARK SMILES IDX 14 1 1 2 22 3 15 4 5 5 3 6 2 7 20 8 16 9 17 10 19 11 6 12
REMARK SMILES IDX 13 13 7 14 11 15 8 16 9 17 12 18 10 20 4 22 21 24 18 26
REMARK H PARENT 12 19 10 21 4 23 21 25 18 27
ROOT
ATOM      1  O   UNL     1      -3.223   2.263  -2.417  1.00  0.00    -0.452 OA
ATOM      2  O   UNL     1       0.190   1.470  -0.336  1.00  0.00    -0.285 OA
ATOM      3  C   UNL     1      -2.047   2.215  -0.295  1.00  0.00     0.111 A 
ATOM      4  C   UNL     1      -3.182   2.468  -1.063  1.00  0.00     0.146 A 
ATOM      5  C   UNL     1      -2.090   1.771  -3.047  1.00  0.00     0.180 A 
ATOM      6  C   UNL     1      -0.930   1.495  -2.423  1.00  0.00     0.208 A 
ATOM      7  C   UNL     1      -0.838   1.706  -0.958  1.00  0.00     0.238 A 
ATOM      8  C   UNL     1      -2.063   2.444   1.084  1.00  0.00     0.134 A 
ATOM      9  C   UNL     1      -4.341   2.954  -0.457  1.00  0.00     0.094 A 
ATOM     10  C   UNL     1      -4.361   3.184   0.920  1.00  0.00     0.123 A 
ATOM     11  C   UNL     1      -3.223   2.929   1.687  1.00  0.00     0.093 A 
ENDROOT
BRANCH   5  12
ATOM     12  C   UNL     1      -2.269   1.597  -4.499  1.00  0.00     0.025 A 
ATOM     13  C   UNL     1      -2.906   0.459  -4.992  1.00  0.00     0.062 A 
ATOM     14  C   UNL     1      -1.801   2.572  -5.381  1.00  0.00     0.016 A 
ATOM     15  C   UNL     1      -3.077   0.295  -6.367  1.00  0.00     0.158 A 
ATOM     16  C   UNL     1      -1.970   2.408  -6.755  1.00  0.00     0.051 A 
ATOM     17  C   UNL     1      -2.608   1.270  -7.249  1.00  0.00     0.157 A 
BRANCH  15  18
ATOM     18  O   UNL     1      -3.699  -0.821  -6.838  1.00  0.00    -0.504 OA
ATOM     19  H   UNL     1      -4.657  -0.744  -6.704  1.00  0.00     0.293 HD
ENDBRANCH  15  18
BRANCH  17  20
ATOM     20  O   UNL     1      -2.769   1.122  -8.594  1.00  0.00    -0.504 OA
ATOM     21  H   UNL     1      -2.129   0.476  -8.931  1.00  0.00     0.293 HD
ENDBRANCH  17  20
ENDBRANCH   5  12
BRANCH   6  22
ATOM     22  O   UNL     1       0.189   1.037  -3.084  1.00  0.00    -0.502 OA
ATOM     23  H   UNL     1       0.080   1.159  -4.040  1.00  0.00     0.293 HD
ENDBRANCH   6  22
BRANCH   8  24
ATOM     24  O   UNL     1      -0.982   2.214   1.880  1.00  0.00    -0.507 OA
ATOM     25  H   UNL     1      -0.259   2.820   1.656  1.00  0.00     0.293 HD
ENDBRANCH   8  24
BRANCH  10  26
ATOM     26  O   UNL     1      -5.490   3.657   1.513  1.00  0.00    -0.508 OA
ATOM     27  H   UNL     1      -6.244   3.106   1.242  1.00  0.00     0.293 HD
ENDBRANCH  10  26
TORSDOF 6
ENDMDL
MODEL 2
REMARK VINA RESULT:    -7.511      2.332      3.791
REMARK INTER + INTRA:          -9.353
REMARK INTER:                  -9.017
REMARK INTRA:                  -0.336
REMARK UNBOUND:                -0.305
REMARK SMILES O=c1c(O)c(-c2ccc(O)c(O)c2)oc2cc(O)cc(O)c12
REMARK SMILES IDX 14 1 1 2 22 3 15 4 5 5 3 6 2 7 20 8 16 9 17 10 19 11 6 12
REMARK SMILES IDX 13 13 7 14 11 15 8 16 9 17 12 18 10 20 4 22 21 24 18 26
REMARK H PARENT 12 19 10 21 4 23 21 25 18 27
ROOT
ATOM      1  O   UNL     1      -3.419   2.810  -4.963  1.00  0.00    -0.452 OA
ATOM      2  O   UNL     1      -2.016  -0.882  -3.962  1.00  0.00    -0.285 OA
ATOM      3  C   UNL     1      -2.530   1.314  -3.273  1.00  0.00     0.111 A 
ATOM      4  C   UNL     1      -3.018   2.554  -3.679  1.00  0.00     0.146 A 
ATOM      5  C   UNL     1      -3.349   1.787  -5.896  1.00  0.00     0.180 A 
ATOM      6  C   UNL     1      -2.891   0.548  -5.635  1.00  0.00     0.208 A 
ATOM      7  C   UNL     1      -2.441   0.227  -4.260  1.00  0.00     0.238 A 
ATOM      8  C   UNL     1      -2.134   1.111  -1.948  1.00  0.00     0.134 A 
ATOM      9  C   UNL     1      -3.110   3.602  -2.762  1.00  0.00     0.094 A 
ATOM     10  C   UNL     1      -2.715   3.403  -1.438  1.00  0.00     0.123 A 
ATOM     11  C   UNL     1      -2.228   2.159  -1.033  1.00  0.00     0.093 A 
ENDROOT
BRANCH   5  12
ATOM     12  C   UNL     1      -3.811   2.195  -7.234  1.00  0.00     0.025 A 
ATOM     13  C   UNL     1      -2.915   2.767  -8.136  1.00  0.00     0.062 A 
ATOM     14  C   UNL     1      -5.145   2.007  -7.599  1.00  0.00     0.016 A 
ATOM     15  C   UNL     1      -3.352   3.152  -9.404  1.00  0.00     0.158 A 
ATOM     16  C   UNL     1      -5.582   2.393  -8.866  1.00  0.00     0.051 A 
ATOM     17  C   UNL     1      -4.686   2.966  -9.768  1.00  0.00     0.157 A 
BRANCH  15  18
ATOM     18  O   UNL     1      -2.469   3.712 -10.277  1.00  0.00    -0.504 OA
ATOM     19  H   UNL     1      -2.591   3.327 -11.160  1.00  0.00     0.293 HD
ENDBRANCH  15  18
BRANCH  17  20
ATOM     20  O   UNL     1      -5.124   3.336 -11.004  1.00  0.00    -0.504 OA
ATOM     21  H   UNL     1      -6.027   3.010 -11.143  1.00  0.00     0.293 HD
ENDBRANCH  17  20
ENDBRANCH   5  12
BRANCH   6  22
ATOM     22  O   UNL     1      -2.804  -0.438  -6.593  1.00  0.00    -0.502 OA
ATOM     23  H   UNL     1      -2.498  -1.265  -6.188  1.00  0.00     0.293 HD
ENDBRANCH   6  22
BRANCH   8  24
ATOM     24  O   UNL     1      -1.651  -0.082  -1.500  1.00  0.00    -0.507 OA
ATOM     25  H   UNL     1      -1.588  -0.719  -2.229  1.00  0.00     0.293 HD
ENDBRANCH   8  24
BRANCH  10  26
ATOM     26  O   UNL     1      -2.805   4.423  -0.542  1.00  0.00    -0.508 OA
ATOM     27  H   UNL     1      -3.267   5.170  -0.959  1.00  0.00     0.293 HD
ENDBRANCH  10  26
TORSDOF 6
ENDMDL
MODEL 3
REMARK VINA RESULT:    -7.423      3.611      5.840
REMARK INTER + INTRA:          -9.247
REMARK INTER:                  -8.970
REMARK INTRA:                  -0.277
REMARK UNBOUND:                -0.305
REMARK SMILES O=c1c(O)c(-c2ccc(O)c(O)c2)oc2cc(O)cc(O)c12
REMARK SMILES IDX 14 1 1 2 22 3 15 4 5 5 3 6 2 7 20 8 16 9 17 10 19 11 6 12
REMARK SMILES IDX 13 13 7 14 11 15 8 16 9 17 12 18 10 20 4 22 21 24 18 26
REMARK H PARENT 12 19 10 21 4 23 21 25 18 27
ROOT
ATOM      1  O   UNL     1      -0.072   0.215  -0.713  1.00  0.00    -0.452 OA
ATOM      2  O   UNL     1      -2.174   0.789  -4.157  1.00  0.00    -0.285 OA
ATOM      3  C   UNL     1      -1.796   1.426  -1.918  1.00  0.00     0.111 A 
ATOM      4  C   UNL     1      -1.044   1.180  -0.771  1.00  0.00     0.146 A 
ATOM      5  C   UNL     1       0.181  -0.539  -1.848  1.00  0.00     0.180 A 
ATOM      6  C   UNL     1      -0.478  -0.407  -3.014  1.00  0.00     0.208 A 
ATOM      7  C   UNL     1      -1.542   0.621  -3.122  1.00  0.00     0.238 A 
ATOM      8  C   UNL     1      -2.775   2.423  -1.918  1.00  0.00     0.134 A 
ATOM      9  C   UNL     1      -1.268   1.928   0.385  1.00  0.00     0.094 A 
ATOM     10  C   UNL     1      -2.245   2.925   0.388  1.00  0.00     0.123 A 
ATOM     11  C   UNL     1      -2.997   3.170  -0.762  1.00  0.00     0.093 A 
ENDROOT
BRANCH   5  12
ATOM     12  C   UNL     1       1.247  -1.537  -1.650  1.00  0.00     0.025 A 
ATOM     13  C   UNL     1       2.510  -1.328  -2.203  1.00  0.00     0.062 A 
ATOM     14  C   UNL     1       0.991  -2.691  -0.909  1.00  0.00     0.016 A 
ATOM     15  C   UNL     1       3.519  -2.273  -2.014  1.00  0.00     0.158 A 
ATOM     16  C   UNL     1       2.000  -3.636  -0.721  1.00  0.00     0.051 A 
ATOM     17  C   UNL     1       3.263  -3.428  -1.274  1.00  0.00     0.157 A 
BRANCH  15  18
ATOM     18  O   UNL     1       4.748  -2.060  -2.560  1.00  0.00    -0.504 OA
ATOM     19  H   UNL     1       5.210  -1.363  -2.066  1.00  0.00     0.293 HD
ENDBRANCH  15  18
BRANCH  17  20
ATOM     20  O   UNL     1       4.241  -4.357  -1.081  1.00  0.00    -0.504 OA
ATOM     21  H   UNL     1       3.861  -5.152  -0.675  1.00  0.00     0.293 HD
ENDBRANCH  17  20
ENDBRANCH   5  12
BRANCH   6  22
ATOM     22  O   UNL     1      -0.224  -1.195  -4.115  1.00  0.00    -0.502 OA
ATOM     23  H   UNL     1      -1.009  -1.723  -4.331  1.00  0.00     0.293 HD
ENDBRANCH   6  22
BRANCH   8  24
ATOM     24  O   UNL     1      -3.538   2.703  -3.012  1.00  0.00    -0.507 OA
ATOM     25  H   UNL     1      -3.583   1.935  -3.602  1.00  0.00     0.293 HD
ENDBRANCH   8  24
BRANCH  10  26
ATOM     26  O   UNL     1      -2.465   3.656   1.514  1.00  0.00    -0.508 OA
ATOM     27  H   UNL     1      -2.827   3.074   2.204  1.00  0.00     0.293 HD
ENDBRANCH  10  26
TORSDOF 6
ENDMDL
MODEL 4
REMARK VINA RESULT:    -7.271      2.804      7.187
REMARK INTER + INTRA:          -9.065
REMARK INTER:                  -8.743
REMARK INTRA:                  -0.322
REMARK UNBOUND:                -0.305
REMARK SMILES O=c1c(O)c(-c2ccc(O)c(O)c2)oc2cc(O)cc(O)c12
REMARK SMILES IDX 14 1 1 2 22 3 15 4 5 5 3 6 2 7 20 8 16 9 17 10 19 11 6 12
REMARK SMILES IDX 13 13 7 14 11 15 8 16 9 17 12 18 10 20 4 22 21 24 18 26
REMARK H PARENT 12 19 10 21 4 23 21 25 18 27
ROOT
ATOM      1  O   UNL     1      -4.517   1.977  -2.346  1.00  0.00    -0.452 OA
ATOM      2  O   UNL     1      -5.603   5.834  -3.087  1.00  0.00    -0.285 OA
ATOM      3  C   UNL     1      -5.477   3.610  -3.862  1.00  0.00     0.111 A 
ATOM      4  C   UNL     1      -5.083   2.311  -3.548  1.00  0.00     0.146 A 
ATOM      5  C   UNL     1      -4.342   2.972  -1.397  1.00  0.00     0.180 A 
ATOM      6  C   UNL     1      -4.671   4.264  -1.578  1.00  0.00     0.208 A 
ATOM      7  C   UNL     1      -5.281   4.674  -2.865  1.00  0.00     0.238 A 
ATOM      8  C   UNL     1      -6.048   3.893  -5.106  1.00  0.00     0.134 A 
ATOM      9  C   UNL     1      -5.256   1.285  -4.478  1.00  0.00     0.094 A 
ATOM     10  C   UNL     1      -5.826   1.563  -5.721  1.00  0.00     0.123 A 
ATOM     11  C   UNL     1      -6.220   2.865  -6.034  1.00  0.00     0.093 A 
ENDROOT
BRANCH   5  12
ATOM     12  C   UNL     1      -3.725   2.479  -0.153  1.00  0.00     0.025 A 
ATOM     13  C   UNL     1      -4.525   2.165   0.945  1.00  0.00     0.062 A 
ATOM     14  C   UNL     1      -2.341   2.325  -0.074  1.00  0.00     0.016 A 
ATOM     15  C   UNL     1      -3.942   1.697   2.123  1.00  0.00     0.158 A 
ATOM     16  C   UNL     1      -1.757   1.858   1.103  1.00  0.00     0.051 A 
ATOM     17  C   UNL     1      -2.557   1.544   2.202  1.00  0.00     0.157 A 
BRANCH  15  18
ATOM     18  O   UNL     1      -4.732   1.395   3.190  1.00  0.00    -0.504 OA
ATOM     19  H   UNL     1      -5.667   1.445   2.931  1.00  0.00     0.293 HD
ENDBRANCH  15  18
BRANCH  17  20
ATOM     20  O   UNL     1      -1.975   1.086   3.346  1.00  0.00    -0.504 OA
ATOM     21  H   UNL     1      -2.659   0.897   4.008  1.00  0.00     0.293 HD
ENDBRANCH  17  20
ENDBRANCH   5  12
BRANCH   6  22
ATOM     22  O   UNL     1      -4.453   5.237  -0.626  1.00  0.00    -0.502 OA
ATOM     23  H   UNL     1      -3.500   5.341  -0.474  1.00  0.00     0.293 HD
ENDBRANCH   6  22
BRANCH   8  24
ATOM     24  O   UNL     1      -6.450   5.145  -5.463  1.00  0.00    -0.507 OA
ATOM     25  H   UNL     1      -5.800   5.805  -5.177  1.00  0.00     0.293 HD
ENDBRANCH   8  24
BRANCH  10  26
ATOM     26  O   UNL     1      -5.996   0.565  -6.629  1.00  0.00    -0.508 OA
ATOM     27  H   UNL     1      -6.765   0.029  -6.370  1.00  0.00     0.293 HD
ENDBRANCH  10  26
TORSDOF 6
ENDMDL
MODEL 5
REMARK VINA RESULT:    -7.245      1.718      3.559
REMARK INTER + INTRA:          -9.033
REMARK INTER:                  -8.718
REMARK INTRA:                  -0.315
REMARK UNBOUND:                -0.305
REMARK SMILES O=c1c(O)c(-c2ccc(O)c(O)c2)oc2cc(O)cc(O)c12
REMARK SMILES IDX 14 1 1 2 22 3 15 4 5 5 3 6 2 7 20 8 16 9 17 10 19 11 6 12
REMARK SMILES IDX 13 13 7 14 11 15 8 16 9 17 12 18 10 20 4 22 21 24 18 26
REMARK H PARENT 12 19 10 21 4 23 21 25 18 27
ROOT
ATOM      1  O   UNL     1      -2.821   2.016  -3.309  1.00  0.00    -0.452 OA
ATOM      2  O   UNL     1      -6.247   3.788  -1.993  1.00  0.00    -0.285 OA
ATOM      3  C   UNL     1      -4.073   3.024  -1.491  1.00  0.00     0.111 A 
ATOM      4  C   UNL     1      -2.930   2.413  -2.002  1.00  0.00     0.146 A 
ATOM      5  C   UNL     1      -3.890   2.245  -4.162  1.00  0.00     0.180 A 
ATOM      6  C   UNL     1      -5.050   2.818  -3.793  1.00  0.00     0.208 A 
ATOM      7  C   UNL     1      -5.216   3.259  -2.387  1.00  0.00     0.238 A 
ATOM      8  C   UNL     1      -4.128   3.407  -0.148  1.00  0.00     0.134 A 
ATOM      9  C   UNL     1      -1.834   2.176  -1.172  1.00  0.00     0.094 A 
ATOM     10  C   UNL     1      -1.885   2.557   0.170  1.00  0.00     0.123 A 
ATOM     11  C   UNL     1      -3.030   3.171   0.680  1.00  0.00     0.093 A 
ENDROOT
BRANCH   5  12
ATOM     12  C   UNL     1      -3.642   1.772  -5.535  1.00  0.00     0.025 A 
ATOM     13  C   UNL     1      -3.249   2.674  -6.523  1.00  0.00     0.062 A 
ATOM     14  C   UNL     1      -3.801   0.421  -5.846  1.00  0.00     0.016 A 
ATOM     15  C   UNL     1      -3.013   2.225  -7.823  1.00  0.00     0.158 A 
ATOM     16  C   UNL     1      -3.566  -0.027  -7.146  1.00  0.00     0.051 A 
ATOM     17  C   UNL     1      -3.173   0.874  -8.135  1.00  0.00     0.157 A 
BRANCH  15  18
ATOM     18  O   UNL     1      -2.631   3.115  -8.781  1.00  0.00    -0.504 OA
ATOM     19  H   UNL     1      -3.007   2.856  -9.638  1.00  0.00     0.293 HD
ENDBRANCH  15  18
BRANCH  17  20
ATOM     20  O   UNL     1      -2.944   0.424  -9.400  1.00  0.00    -0.504 OA
ATOM     21  H   UNL     1      -1.989   0.370  -9.561  1.00  0.00     0.293 HD
ENDBRANCH  17  20
ENDBRANCH   5  12
BRANCH   6  22
ATOM     22  O   UNL     1      -6.107   3.003  -4.658  1.00  0.00    -0.502 OA
ATOM     23  H   UNL     1      -6.945   2.943  -4.173  1.00  0.00     0.293 HD
ENDBRANCH   6  22
BRANCH   8  24
ATOM     24  O   UNL     1      -5.220   4.008   0.401  1.00  0.00    -0.507 OA
ATOM     25  H   UNL     1      -6.030   3.538   0.150  1.00  0.00     0.293 HD
ENDBRANCH   8  24
BRANCH  10  26
ATOM     26  O   UNL     1      -0.817   2.329   0.982  1.00  0.00    -0.508 OA
ATOM     27  H   UNL     1      -0.078   1.994   0.445  1.00  0.00     0.293 HD
ENDBRANCH  10  26
TORSDOF 6
ENDMDL
MODEL 6
REMARK VINA RESULT:    -7.129      2.480      3.256
REMARK INTER + INTRA:          -8.893
REMARK INTER:                  -8.819
REMARK INTRA:                  -0.074
REMARK UNBOUND:                -0.305
REMARK SMILES O=c1c(O)c(-c2ccc(O)c(O)c2)oc2cc(O)cc(O)c12
REMARK SMILES IDX 14 1 1 2 22 3 15 4 5 5 3 6 2 7 20 8 16 9 17 10 19 11 6 12
REMARK SMILES IDX 13 13 7 14 11 15 8 16 9 17 12 18 10 20 4 22 21 24 18 26
REMARK H PARENT 12 19 10 21 4 23 21 25 18 27
ROOT
ATOM      1  O   UNL     1      -4.388   2.833  -4.440  1.00  0.00    -0.452 OA
ATOM      2  O   UNL     1      -3.848  -0.397  -2.015  1.00  0.00    -0.285 OA
ATOM      3  C   UNL     1      -4.078   1.942  -2.204  1.00  0.00     0.111 A 
ATOM      4  C   UNL     1      -4.263   3.005  -3.087  1.00  0.00     0.146 A 
ATOM      5  C   UNL     1      -4.341   1.545  -4.951  1.00  0.00     0.180 A 
ATOM      6  C   UNL     1      -4.160   0.437  -4.210  1.00  0.00     0.208 A 
ATOM      7  C   UNL     1      -4.014   0.574  -2.741  1.00  0.00     0.238 A 
ATOM      8  C   UNL     1      -3.955   2.178  -0.833  1.00  0.00     0.134 A 
ATOM      9  C   UNL     1      -4.324   4.312  -2.603  1.00  0.00     0.094 A 
ATOM     10  C   UNL     1      -4.202   4.552  -1.233  1.00  0.00     0.123 A 
ATOM     11  C   UNL     1      -4.017   3.486  -0.351  1.00  0.00     0.093 A 
ENDROOT
BRANCH   5  12
ATOM     12  C   UNL     1      -4.489   1.502  -6.417  1.00  0.00     0.025 A 
ATOM     13  C   UNL     1      -3.496   0.914  -7.201  1.00  0.00     0.062 A 
ATOM     14  C   UNL     1      -5.622   2.049  -7.020  1.00  0.00     0.016 A 
ATOM     15  C   UNL     1      -3.637   0.872  -8.588  1.00  0.00     0.158 A 
ATOM     16  C   UNL     1      -5.762   2.008  -8.407  1.00  0.00     0.051 A 
ATOM     17  C   UNL     1      -4.770   1.420  -9.191  1.00  0.00     0.157 A 
BRANCH  15  18
ATOM     18  O   UNL     1      -2.661   0.297  -9.344  1.00  0.00    -0.504 OA
ATOM     19  H   UNL     1      -1.830   0.271  -8.843  1.00  0.00     0.293 HD
ENDBRANCH  15  18
BRANCH  17  20
ATOM     20  O   UNL     1      -4.919   1.384 -10.545  1.00  0.00    -0.504 OA
ATOM     21  H   UNL     1      -5.174   0.490 -10.823  1.00  0.00     0.293 HD
ENDBRANCH  17  20
ENDBRANCH   5  12
BRANCH   6  22
ATOM     22  O   UNL     1      -4.085  -0.828  -4.753  1.00  0.00    -0.502 OA
ATOM     23  H   UNL     1      -4.976  -1.201  -4.843  1.00  0.00     0.293 HD
ENDBRANCH   6  22
BRANCH   8  24
ATOM     24  O   UNL     1      -3.773   1.176   0.072  1.00  0.00    -0.507 OA
ATOM     25  H   UNL     1      -2.888   0.792  -0.019  1.00  0.00     0.293 HD
ENDBRANCH   8  24
BRANCH  10  26
ATOM     26  O   UNL     1      -4.262   5.825  -0.758  1.00  0.00    -0.508 OA
ATOM     27  H   UNL     1      -4.793   5.834   0.057  1.00  0.00     0.293 HD
ENDBRANCH  10  26
TORSDOF 6
ENDMDL
MODEL 7
REMARK VINA RESULT:    -7.107      2.778      3.593
REMARK INTER + INTRA:          -8.866
REMARK INTER:                  -8.857
REMARK INTRA:                  -0.009
REMARK UNBOUND:                -0.305
REMARK SMILES O=c1c(O)c(-c2ccc(O)c(O)c2)oc2cc(O)cc(O)c12
REMARK SMILES IDX 14 1 1 2 22 3 15 4 5 5 3 6 2 7 20 8 16 9 17 10 19 11 6 12
REMARK SMILES IDX 13 13 7 14 11 15 8 16 9 17 12 18 10 20 4 22 21 24 18 26
REMARK H PARENT 12 19 10 21 4 23 21 25 18 27
ROOT
ATOM      1  O   UNL     1      -2.232   1.107  -0.978  1.00  0.00    -0.452 OA
ATOM      2  O   UNL     1      -3.736   4.508  -2.646  1.00  0.00    -0.285 OA
ATOM      3  C   UNL     1      -3.664   3.058  -0.788  1.00  0.00     0.111 A 
ATOM      4  C   UNL     1      -3.116   1.884  -0.275  1.00  0.00     0.146 A 
ATOM      5  C   UNL     1      -1.859   1.515  -2.249  1.00  0.00     0.180 A 
ATOM      6  C   UNL     1      -2.321   2.621  -2.862  1.00  0.00     0.208 A 
ATOM      7  C   UNL     1      -3.283   3.489  -2.141  1.00  0.00     0.238 A 
ATOM      8  C   UNL     1      -4.562   3.808  -0.025  1.00  0.00     0.134 A 
ATOM      9  C   UNL     1      -3.464   1.452   1.005  1.00  0.00     0.094 A 
ATOM     10  C   UNL     1      -4.360   2.200   1.771  1.00  0.00     0.123 A 
ATOM     11  C   UNL     1      -4.908   3.376   1.255  1.00  0.00     0.093 A 
ENDROOT
BRANCH   5  12
ATOM     12  C   UNL     1      -0.906   0.593  -2.892  1.00  0.00     0.025 A 
ATOM     13  C   UNL     1      -1.172  -0.776  -2.922  1.00  0.00     0.062 A 
ATOM     14  C   UNL     1       0.262   1.090  -3.471  1.00  0.00     0.016 A 
ATOM     15  C   UNL     1      -0.270  -1.648  -3.533  1.00  0.00     0.158 A 
ATOM     16  C   UNL     1       1.164   0.218  -4.081  1.00  0.00     0.051 A 
ATOM     17  C   UNL     1       0.898  -1.151  -4.111  1.00  0.00     0.157 A 
BRANCH  15  18
ATOM     18  O   UNL     1      -0.539  -2.983  -3.555  1.00  0.00    -0.504 OA
ATOM     19  H   UNL     1      -1.499  -3.125  -3.527  1.00  0.00     0.293 HD
ENDBRANCH  15  18
BRANCH  17  20
ATOM     20  O   UNL     1       1.785  -1.993  -4.711  1.00  0.00    -0.504 OA
ATOM     21  H   UNL     1       2.264  -1.520  -5.410  1.00  0.00     0.293 HD
ENDBRANCH  17  20
ENDBRANCH   5  12
BRANCH   6  22
ATOM     22  O   UNL     1      -1.954   2.981  -4.140  1.00  0.00    -0.502 OA
ATOM     23  H   UNL     1      -1.390   3.769  -4.112  1.00  0.00     0.293 HD
ENDBRANCH   6  22
BRANCH   8  24
ATOM     24  O   UNL     1      -5.127   4.962  -0.480  1.00  0.00    -0.507 OA
ATOM     25  H   UNL     1      -6.048   5.030  -0.186  1.00  0.00     0.293 HD
ENDBRANCH   8  24
BRANCH  10  26
ATOM     26  O   UNL     1      -4.701   1.782   3.019  1.00  0.00    -0.508 OA
ATOM     27  H   UNL     1      -4.774   0.812   3.019  1.00  0.00     0.293 HD
ENDBRANCH  10  26
TORSDOF 6
ENDMDL
MODEL 8
REMARK VINA RESULT:    -6.985      3.206      5.506
REMARK INTER + INTRA:          -8.719
REMARK INTER:                  -8.391
REMARK INTRA:                  -0.328
REMARK UNBOUND:                -0.305
REMARK SMILES O=c1c(O)c(-c2ccc(O)c(O)c2)oc2cc(O)cc(O)c12
REMARK SMILES IDX 14 1 1 2 22 3 15 4 5 5 3 6 2 7 20 8 16 9 17 10 19 11 6 12
REMARK SMILES IDX 13 13 7 14 11 15 8 16 9 17 12 18 10 20 4 22 21 24 18 26
REMARK H PARENT 12 19 10 21 4 23 21 25 18 27
ROOT
ATOM      1  O   UNL     1      -3.956   2.590  -3.209  1.00  0.00    -0.452 OA
ATOM      2  O   UNL     1      -1.846   3.434   0.174  1.00  0.00    -0.285 OA
ATOM      3  C   UNL     1      -2.048   2.131  -1.782  1.00  0.00     0.111 A 
ATOM      4  C   UNL     1      -2.814   1.890  -2.921  1.00  0.00     0.146 A 
ATOM      5  C   UNL     1      -4.358   3.589  -2.337  1.00  0.00     0.180 A 
ATOM      6  C   UNL     1      -3.713   3.915  -1.202  1.00  0.00     0.208 A 
ATOM      7  C   UNL     1      -2.476   3.181  -0.845  1.00  0.00     0.238 A 
ATOM      8  C   UNL     1      -0.892   1.383  -1.538  1.00  0.00     0.134 A 
ATOM      9  C   UNL     1      -2.430   0.897  -3.823  1.00  0.00     0.094 A 
ATOM     10  C   UNL     1      -1.277   0.149  -3.583  1.00  0.00     0.123 A 
ATOM     11  C   UNL     1      -0.510   0.392  -2.442  1.00  0.00     0.093 A 
ENDROOT
BRANCH   5  12
ATOM     12  C   UNL     1      -5.597   4.262  -2.765  1.00  0.00     0.025 A 
ATOM     13  C   UNL     1      -6.831   3.821  -2.288  1.00  0.00     0.062 A 
ATOM     14  C   UNL     1      -5.535   5.341  -3.648  1.00  0.00     0.016 A 
ATOM     15  C   UNL     1      -8.004   4.459  -2.692  1.00  0.00     0.158 A 
ATOM     16  C   UNL     1      -6.708   5.979  -4.053  1.00  0.00     0.051 A 
ATOM     17  C   UNL     1      -7.942   5.537  -3.576  1.00  0.00     0.157 A 
BRANCH  15  18
ATOM     18  O   UNL     1      -9.204   4.019  -2.222  1.00  0.00    -0.504 OA
ATOM     19  H   UNL     1      -9.800   3.833  -2.965  1.00  0.00     0.293 HD
ENDBRANCH  15  18
BRANCH  17  20
ATOM     20  O   UNL     1      -9.081   6.170  -3.977  1.00  0.00    -0.504 OA
ATOM     21  H   UNL     1      -9.583   5.593  -4.574  1.00  0.00     0.293 HD
ENDBRANCH  17  20
ENDBRANCH   5  12
BRANCH   6  22
ATOM     22  O   UNL     1      -4.158   4.893  -0.338  1.00  0.00    -0.502 OA
ATOM     23  H   UNL     1      -5.081   5.114  -0.538  1.00  0.00     0.293 HD
ENDBRANCH   6  22
BRANCH   8  24
ATOM     24  O   UNL     1      -0.109   1.579  -0.441  1.00  0.00    -0.507 OA
ATOM     25  H   UNL     1      -0.650   1.609   0.363  1.00  0.00     0.293 HD
ENDBRANCH   8  24
BRANCH  10  26
ATOM     26  O   UNL     1      -0.900  -0.819  -4.461  1.00  0.00    -0.508 OA
ATOM     27  H   UNL     1      -0.844  -1.669  -3.991  1.00  0.00     0.293 HD
ENDBRANCH  10  26
TORSDOF 6
ENDMDL
MODEL 9
REMARK VINA RESULT:    -6.948      3.272      3.738
REMARK INTER + INTRA:          -8.675
REMARK INTER:                  -8.362
REMARK INTRA:                  -0.313
REMARK UNBOUND:                -0.305
REMARK SMILES O=c1c(O)c(-c2ccc(O)c(O)c2)oc2cc(O)cc(O)c12
REMARK SMILES IDX 14 1 1 2 22 3 15 4 5 5 3 6 2 7 20 8 16 9 17 10 19 11 6 12
REMARK SMILES IDX 13 13 7 14 11 15 8 16 9 17 12 18 10 20 4 22 21 24 18 26
REMARK H PARENT 12 19 10 21 4 23 21 25 18 27
ROOT
ATOM      1  O   UNL     1      -5.057   3.415  -0.907  1.00  0.00    -0.452 OA
ATOM      2  O   UNL     1      -1.289   1.968  -1.470  1.00  0.00    -0.285 OA
ATOM      3  C   UNL     1      -3.067   2.383   0.023  1.00  0.00     0.111 A 
ATOM      4  C   UNL     1      -4.357   2.894   0.150  1.00  0.00     0.146 A 
ATOM      5  C   UNL     1      -4.459   3.421  -2.158  1.00  0.00     0.180 A 
ATOM      6  C   UNL     1      -3.219   2.966  -2.413  1.00  0.00     0.208 A 
ATOM      7  C   UNL     1      -2.422   2.398  -1.299  1.00  0.00     0.238 A 
ATOM      8  C   UNL     1      -2.401   1.866   1.137  1.00  0.00     0.134 A 
ATOM      9  C   UNL     1      -4.989   2.893   1.393  1.00  0.00     0.094 A 
ATOM     10  C   UNL     1      -4.327   2.377   2.508  1.00  0.00     0.123 A 
ATOM     11  C   UNL     1      -3.035   1.865   2.379  1.00  0.00     0.093 A 
ENDROOT
BRANCH   5  12
ATOM     12  C   UNL     1      -5.318   4.006  -3.203  1.00  0.00     0.025 A 
ATOM     13  C   UNL     1      -6.039   3.175  -4.060  1.00  0.00     0.062 A 
ATOM     14  C   UNL     1      -5.410   5.392  -3.334  1.00  0.00     0.016 A 
ATOM     15  C   UNL     1      -6.853   3.730  -5.048  1.00  0.00     0.158 A 
ATOM     16  C   UNL     1      -6.223   5.947  -4.323  1.00  0.00     0.051 A 
ATOM     17  C   UNL     1      -6.944   5.116  -5.180  1.00  0.00     0.157 A 
BRANCH  15  18
ATOM     18  O   UNL     1      -7.551   2.909  -5.881  1.00  0.00    -0.504 OA
ATOM     19  H   UNL     1      -6.935   2.386  -6.419  1.00  0.00     0.293 HD
ENDBRANCH  15  18
BRANCH  17  20
ATOM     20  O   UNL     1      -7.736   5.669  -6.140  1.00  0.00    -0.504 OA
ATOM     21  H   UNL     1      -7.944   5.005  -6.816  1.00  0.00     0.293 HD
ENDBRANCH  17  20
ENDBRANCH   5  12
BRANCH   6  22
ATOM     22  O   UNL     1      -2.641   3.016  -3.663  1.00  0.00    -0.502 OA
ATOM     23  H   UNL     1      -1.739   3.367  -3.595  1.00  0.00     0.293 HD
ENDBRANCH   6  22
BRANCH   8  24
ATOM     24  O   UNL     1      -1.140   1.354   1.067  1.00  0.00    -0.507 OA
ATOM     25  H   UNL     1      -1.098   0.490   1.505  1.00  0.00     0.293 HD
ENDBRANCH   8  24
BRANCH  10  26
ATOM     26  O   UNL     1      -4.941   2.375   3.722  1.00  0.00    -0.508 OA
ATOM     27  H   UNL     1      -4.666   1.582   4.214  1.00  0.00     0.293 HD
ENDBRANCH  10  26
TORSDOF 6
ENDMDL
