MODEL 1
REMARK VINA RESULT:    -8.458      0.000      0.000
REMARK INTER + INTRA:         -12.603
REMARK INTER:                 -11.425
REMARK INTRA:                  -1.178
REMARK UNBOUND:                -1.178
REMARK SMILES C[C@@H]1O[C@@H](Oc2c(-c3ccc(O)cc3)oc3cc(O)cc(O)c3c2=O)[C@H](O)[C@H](O)[C@H]1O
REMARK SMILES IDX 15 1 25 2 6 3 7 4 24 5 23 6 16 7 21 8 17 9 20 10 18 11 5 12
REMARK SMILES IDX 4 13 3 14 2 15 30 16 26 17 28 18 1 19 31 20 27 22 29 24 8 26
REMARK SMILES IDX 9 27 14 28 10 29 13 30 11 31 12 32 22 34 19 36
REMARK H PARENT 31 21 27 23 29 25 12 33 22 35 19 37
ROOT
ATOM      1  O   UNL     1      28.658  30.789  88.998  1.00  0.00    -0.452 OA
ATOM      2  O   UNL     1      25.671  29.143  86.766  1.00  0.00    -0.285 OA
ATOM      3  C   UNL     1      27.858  28.944  87.655  1.00  0.00     0.214 A 
ATOM      4  C   UNL     1      28.803  29.548  88.398  1.00  0.00     0.180 A 
ATOM      5  C   UNL     1      26.568  29.642  87.433  1.00  0.00     0.239 A 
ATOM      6  C   UNL     1      26.425  30.964  88.061  1.00  0.00     0.111 A 
ATOM      7  C   UNL     1      27.482  31.470  88.814  1.00  0.00     0.146 A 
ATOM      8  C   UNL     1      25.249  31.703  87.910  1.00  0.00     0.134 A 
ATOM      9  C   UNL     1      27.370  32.721  89.421  1.00  0.00     0.094 A 
ATOM     10  C   UNL     1      25.140  32.954  88.518  1.00  0.00     0.093 A 
ATOM     11  C   UNL     1      26.198  33.462  89.272  1.00  0.00     0.123 A 
ENDROOT
BRANCH   3  12
ATOM     12  O   UNL     1      28.022  27.693  87.099  1.00  0.00    -0.454 OA
BRANCH  12  13
ATOM     13  C   UNL     1      27.392  26.683  87.879  1.00  0.00     0.339 C 
ATOM     14  O   UNL     1      28.334  25.892  88.611  1.00  0.00    -0.335 OA
ATOM     15  C   UNL     1      29.223  25.128  87.790  1.00  0.00     0.151 C 
ATOM     16  C   UNL     1      28.445  24.162  86.885  1.00  0.00     0.174 C 
ATOM     17  C   UNL     1      26.531  25.799  86.980  1.00  0.00     0.214 C 
ATOM     18  C   UNL     1      27.403  24.929  86.072  1.00  0.00     0.180 C 
ATOM     19  C   UNL     1      30.175  24.391  88.729  1.00  0.00     0.042 C 
BRANCH  16  20
ATOM     20  O   UNL     1      29.332  23.517  85.974  1.00  0.00    -0.388 OA
ATOM     21  H   UNL     1      29.122  22.567  85.971  1.00  0.00     0.211 HD
ENDBRANCH  16  20
BRANCH  17  22
ATOM     22  O   UNL     1      25.729  24.970  87.822  1.00  0.00    -0.384 OA
ATOM     23  H   UNL     1      25.211  24.382  87.247  1.00  0.00     0.211 HD
ENDBRANCH  17  22
BRANCH  18  24
ATOM     24  O   UNL     1      26.588  24.001  85.359  1.00  0.00    -0.387 OA
ATOM     25  H   UNL     1      27.072  23.737  84.558  1.00  0.00     0.211 HD
ENDBRANCH  18  24
ENDBRANCH  12  13
ENDBRANCH   3  12
BRANCH   4  26
ATOM     26  C   UNL     1      30.109  28.925  88.675  1.00  0.00     0.021 A 
ATOM     27  C   UNL     1      31.177  29.120  87.797  1.00  0.00     0.016 A 
ATOM     28  C   UNL     1      30.280  28.140  89.816  1.00  0.00     0.016 A 
ATOM     29  C   UNL     1      32.414  28.529  88.061  1.00  0.00     0.047 A 
ATOM     30  C   UNL     1      31.517  27.551  90.080  1.00  0.00     0.047 A 
ATOM     31  C   UNL     1      32.583  27.745  89.202  1.00  0.00     0.115 A 
BRANCH  31  32
ATOM     32  O   UNL     1      33.790  27.171  89.459  1.00  0.00    -0.508 OA
ATOM     33  H   UNL     1      33.647  26.352  89.965  1.00  0.00     0.293 HD
ENDBRANCH  31  32
ENDBRANCH   4  26
BRANCH   8  34
ATOM     34  O   UNL     1      24.187  31.254  87.185  1.00  0.00    -0.507 OA
ATOM     35  H   UNL     1      23.967  30.347  87.460  1.00  0.00     0.293 HD
ENDBRANCH   8  34
BRANCH  11  36
ATOM     36  O   UNL     1      26.087  34.684  89.864  1.00  0.00    -0.508 OA
ATOM     37  H   UNL     1      26.634  34.697  90.668  1.00  0.00     0.293 HD
ENDBRANCH  11  36
TORSDOF 9
ENDMDL
MODEL 2
REMARK VINA RESULT:    -8.367      2.195      3.580
REMARK INTER + INTRA:         -12.480
REMARK INTER:                 -11.710
REMARK INTRA:                  -0.770
REMARK UNBOUND:                -1.178
REMARK SMILES C[C@@H]1O[C@@H](Oc2c(-c3ccc(O)cc3)oc3cc(O)cc(O)c3c2=O)[C@H](O)[C@H](O)[C@H]1O
REMARK SMILES IDX 15 1 25 2 6 3 7 4 24 5 23 6 16 7 21 8 17 9 20 10 18 11 5 12
REMARK SMILES IDX 4 13 3 14 2 15 30 16 26 17 28 18 1 19 31 20 27 22 29 24 8 26
REMARK SMILES IDX 9 27 14 28 10 29 13 30 11 31 12 32 22 34 19 36
REMARK H PARENT 31 21 27 23 29 25 12 33 22 35 19 37
ROOT
ATOM      1  O   UNL     1      29.786  30.068  88.150  1.00  0.00    -0.452 OA
ATOM      2  O   UNL     1      27.690  26.622  88.737  1.00  0.00    -0.285 OA
ATOM      3  C   UNL     1      29.789  27.661  88.382  1.00  0.00     0.214 A 
ATOM      4  C   UNL     1      30.417  28.834  88.186  1.00  0.00     0.180 A 
ATOM      5  C   UNL     1      28.316  27.658  88.557  1.00  0.00     0.239 A 
ATOM      6  C   UNL     1      27.651  28.969  88.504  1.00  0.00     0.111 A 
ATOM      7  C   UNL     1      28.424  30.110  88.304  1.00  0.00     0.146 A 
ATOM      8  C   UNL     1      26.265  29.073  88.655  1.00  0.00     0.134 A 
ATOM      9  C   UNL     1      27.817  31.364  88.251  1.00  0.00     0.094 A 
ATOM     10  C   UNL     1      25.660  30.329  88.603  1.00  0.00     0.093 A 
ATOM     11  C   UNL     1      26.435  31.473  88.401  1.00  0.00     0.123 A 
ENDROOT
BRANCH   3  12
ATOM     12  O   UNL     1      30.451  26.453  88.446  1.00  0.00    -0.454 OA
BRANCH  12  13
ATOM     13  C   UNL     1      31.163  26.305  89.669  1.00  0.00     0.339 C 
ATOM     14  O   UNL     1      32.526  25.922  89.465  1.00  0.00    -0.335 OA
ATOM     15  C   UNL     1      32.690  24.634  88.864  1.00  0.00     0.151 C 
ATOM     16  C   UNL     1      32.048  23.537  89.727  1.00  0.00     0.174 C 
ATOM     17  C   UNL     1      30.447  25.295  90.563  1.00  0.00     0.214 C 
ATOM     18  C   UNL     1      30.584  23.878  90.004  1.00  0.00     0.180 C 
ATOM     19  C   UNL     1      34.189  24.414  88.683  1.00  0.00     0.042 C 
BRANCH  16  20
ATOM     20  O   UNL     1      32.092  22.285  89.047  1.00  0.00    -0.388 OA
ATOM     21  H   UNL     1      32.276  22.458  88.108  1.00  0.00     0.211 HD
ENDBRANCH  16  20
BRANCH  17  22
ATOM     22  O   UNL     1      31.040  25.365  91.861  1.00  0.00    -0.384 OA
ATOM     23  H   UNL     1      31.775  24.729  91.882  1.00  0.00     0.211 HD
ENDBRANCH  17  22
BRANCH  18  24
ATOM     24  O   UNL     1      30.051  22.936  90.932  1.00  0.00    -0.387 OA
ATOM     25  H   UNL     1      29.082  22.971  90.866  1.00  0.00     0.211 HD
ENDBRANCH  18  24
ENDBRANCH  12  13
ENDBRANCH   3  12
BRANCH   4  26
ATOM     26  C   UNL     1      31.877  28.930  88.012  1.00  0.00     0.021 A 
ATOM     27  C   UNL     1      32.451  28.654  86.770  1.00  0.00     0.016 A 
ATOM     28  C   UNL     1      32.686  29.297  89.087  1.00  0.00     0.016 A 
ATOM     29  C   UNL     1      33.834  28.745  86.605  1.00  0.00     0.047 A 
ATOM     30  C   UNL     1      34.068  29.389  88.922  1.00  0.00     0.047 A 
ATOM     31  C   UNL     1      34.643  29.113  87.681  1.00  0.00     0.115 A 
BRANCH  31  32
ATOM     32  O   UNL     1      35.990  29.203  87.519  1.00  0.00    -0.508 OA
ATOM     33  H   UNL     1      36.252  28.665  86.752  1.00  0.00     0.293 HD
ENDBRANCH  31  32
ENDBRANCH   4  26
BRANCH   8  34
ATOM     34  O   UNL     1      25.464  27.989  88.854  1.00  0.00    -0.507 OA
ATOM     35  H   UNL     1      25.609  27.344  88.141  1.00  0.00     0.293 HD
ENDBRANCH   8  34
BRANCH  11  36
ATOM     36  O   UNL     1      25.839  32.697  88.350  1.00  0.00    -0.508 OA
ATOM     37  H   UNL     1      25.748  33.041  89.255  1.00  0.00     0.293 HD
ENDBRANCH  11  36
TORSDOF 9
ENDMDL
MODEL 3
REMARK VINA RESULT:    -8.150      2.255      3.972
REMARK INTER + INTRA:         -12.186
REMARK INTER:                 -11.304
REMARK INTRA:                  -0.882
REMARK UNBOUND:                -1.178
REMARK SMILES C[C@@H]1O[C@@H](Oc2c(-c3ccc(O)cc3)oc3cc(O)cc(O)c3c2=O)[C@H](O)[C@H](O)[C@H]1O
REMARK SMILES IDX 15 1 25 2 6 3 7 4 24 5 23 6 16 7 21 8 17 9 20 10 18 11 5 12
REMARK SMILES IDX 4 13 3 14 2 15 30 16 26 17 28 18 1 19 31 20 27 22 29 24 8 26
REMARK SMILES IDX 9 27 14 28 10 29 13 30 11 31 12 32 22 34 19 36
REMARK H PARENT 31 21 27 23 29 25 12 33 22 35 19 37
ROOT
ATOM      1  O   UNL     1      30.127  29.757  88.372  1.00  0.00    -0.452 OA
ATOM      2  O   UNL     1      28.030  26.278  88.702  1.00  0.00    -0.285 OA
ATOM      3  C   UNL     1      30.139  27.347  88.563  1.00  0.00     0.214 A 
ATOM      4  C   UNL     1      30.768  28.531  88.446  1.00  0.00     0.180 A 
ATOM      5  C   UNL     1      28.657  27.324  88.598  1.00  0.00     0.239 A 
ATOM      6  C   UNL     1      27.982  28.628  88.506  1.00  0.00     0.111 A 
ATOM      7  C   UNL     1      28.756  29.781  88.398  1.00  0.00     0.146 A 
ATOM      8  C   UNL     1      26.588  28.714  88.528  1.00  0.00     0.134 A 
ATOM      9  C   UNL     1      28.140  31.029  88.310  1.00  0.00     0.094 A 
ATOM     10  C   UNL     1      25.974  29.964  88.441  1.00  0.00     0.093 A 
ATOM     11  C   UNL     1      26.749  31.119  88.332  1.00  0.00     0.123 A 
ENDROOT
BRANCH   3  12
ATOM     12  O   UNL     1      30.808  26.146  88.667  1.00  0.00    -0.454 OA
BRANCH  12  13
ATOM     13  C   UNL     1      30.525  25.490  89.898  1.00  0.00     0.339 C 
ATOM     14  O   UNL     1      31.432  25.868  90.939  1.00  0.00    -0.335 OA
ATOM     15  C   UNL     1      32.791  25.488  90.701  1.00  0.00     0.151 C 
ATOM     16  C   UNL     1      32.917  23.967  90.537  1.00  0.00     0.174 C 
ATOM     17  C   UNL     1      30.543  23.977  89.692  1.00  0.00     0.214 C 
ATOM     18  C   UNL     1      31.967  23.476  89.446  1.00  0.00     0.180 C 
ATOM     19  C   UNL     1      33.611  26.006  91.879  1.00  0.00     0.042 C 
BRANCH  16  20
ATOM     20  O   UNL     1      34.247  23.620  90.157  1.00  0.00    -0.388 OA
ATOM     21  H   UNL     1      34.838  23.840  90.896  1.00  0.00     0.211 HD
ENDBRANCH  16  20
BRANCH  17  22
ATOM     22  O   UNL     1      30.011  23.371  90.871  1.00  0.00    -0.384 OA
ATOM     23  H   UNL     1      30.479  22.529  91.005  1.00  0.00     0.211 HD
ENDBRANCH  17  22
BRANCH  18  24
ATOM     24  O   UNL     1      31.982  22.050  89.417  1.00  0.00    -0.387 OA
ATOM     25  H   UNL     1      32.236  21.775  88.519  1.00  0.00     0.211 HD
ENDBRANCH  18  24
ENDBRANCH  12  13
ENDBRANCH   3  12
BRANCH   4  26
ATOM     26  C   UNL     1      32.236  28.646  88.410  1.00  0.00     0.021 A 
ATOM     27  C   UNL     1      32.955  28.787  89.599  1.00  0.00     0.016 A 
ATOM     28  C   UNL     1      32.909  28.615  87.189  1.00  0.00     0.016 A 
ATOM     29  C   UNL     1      34.346  28.896  89.565  1.00  0.00     0.047 A 
ATOM     30  C   UNL     1      34.300  28.724  87.155  1.00  0.00     0.047 A 
ATOM     31  C   UNL     1      35.018  28.864  88.343  1.00  0.00     0.115 A 
BRANCH  31  32
ATOM     32  O   UNL     1      36.374  28.970  88.310  1.00  0.00    -0.508 OA
ATOM     33  H   UNL     1      36.703  28.545  87.499  1.00  0.00     0.293 HD
ENDBRANCH  31  32
ENDBRANCH   4  26
BRANCH   8  34
ATOM     34  O   UNL     1      25.786  27.618  88.633  1.00  0.00    -0.507 OA
ATOM     35  H   UNL     1      25.912  27.048  87.855  1.00  0.00     0.293 HD
ENDBRANCH   8  34
BRANCH  11  36
ATOM     36  O   UNL     1      26.144  32.337  88.246  1.00  0.00    -0.508 OA
ATOM     37  H   UNL     1      25.187  32.224  88.372  1.00  0.00     0.293 HD
ENDBRANCH  11  36
TORSDOF 9
ENDMDL
MODEL 4
REMARK VINA RESULT:    -7.713      2.146      5.168
REMARK INTER + INTRA:         -11.596
REMARK INTER:                 -10.433
REMARK INTRA:                  -1.163
REMARK UNBOUND:                -1.178
REMARK SMILES C[C@@H]1O[C@@H](Oc2c(-c3ccc(O)cc3)oc3cc(O)cc(O)c3c2=O)[C@H](O)[C@H](O)[C@H]1O
REMARK SMILES IDX 15 1 25 2 6 3 7 4 24 5 23 6 16 7 21 8 17 9 20 10 18 11 5 12
REMARK SMILES IDX 4 13 3 14 2 15 30 16 26 17 28 18 1 19 31 20 27 22 29 24 8 26
REMARK SMILES IDX 9 27 14 28 10 29 13 30 11 31 12 32 22 34 19 36
REMARK H PARENT 31 21 27 23 29 25 12 33 22 35 19 37
ROOT
ATOM      1  O   UNL     1      27.659  28.289  88.181  1.00  0.00    -0.452 OA
ATOM      2  O   UNL     1      29.899  31.690  88.339  1.00  0.00    -0.285 OA
ATOM      3  C   UNL     1      29.791  29.341  88.622  1.00  0.00     0.214 A 
ATOM      4  C   UNL     1      28.994  28.259  88.556  1.00  0.00     0.180 A 
ATOM      5  C   UNL     1      29.222  30.671  88.295  1.00  0.00     0.239 A 
ATOM      6  C   UNL     1      27.803  30.697  87.912  1.00  0.00     0.111 A 
ATOM      7  C   UNL     1      27.093  29.499  87.874  1.00  0.00     0.146 A 
ATOM      8  C   UNL     1      27.172  31.901  87.587  1.00  0.00     0.134 A 
ATOM      9  C   UNL     1      25.746  29.497  87.512  1.00  0.00     0.094 A 
ATOM     10  C   UNL     1      25.825  31.896  87.225  1.00  0.00     0.093 A 
ATOM     11  C   UNL     1      25.113  30.696  87.188  1.00  0.00     0.123 A 
ENDROOT
BRANCH   3  12
ATOM     12  O   UNL     1      31.124  29.273  88.967  1.00  0.00    -0.454 OA
BRANCH  12  13
ATOM     13  C   UNL     1      31.965  29.236  87.818  1.00  0.00     0.339 C 
ATOM     14  O   UNL     1      32.368  27.904  87.481  1.00  0.00    -0.335 OA
ATOM     15  C   UNL     1      33.183  27.270  88.472  1.00  0.00     0.151 C 
ATOM     16  C   UNL     1      34.469  28.070  88.723  1.00  0.00     0.174 C 
ATOM     17  C   UNL     1      33.183  30.128  88.041  1.00  0.00     0.214 C 
ATOM     18  C   UNL     1      34.126  29.516  89.080  1.00  0.00     0.180 C 
ATOM     19  C   UNL     1      33.478  25.859  87.969  1.00  0.00     0.042 C 
BRANCH  16  20
ATOM     20  O   UNL     1      35.197  27.506  89.811  1.00  0.00    -0.388 OA
ATOM     21  H   UNL     1      36.022  28.010  89.915  1.00  0.00     0.211 HD
ENDBRANCH  16  20
BRANCH  17  22
ATOM     22  O   UNL     1      33.860  30.262  86.790  1.00  0.00    -0.384 OA
ATOM     23  H   UNL     1      34.533  29.562  86.744  1.00  0.00     0.211 HD
ENDBRANCH  17  22
BRANCH  18  24
ATOM     24  O   UNL     1      35.328  30.280  89.154  1.00  0.00    -0.387 OA
ATOM     25  H   UNL     1      35.081  31.202  89.340  1.00  0.00     0.211 HD
ENDBRANCH  18  24
ENDBRANCH  12  13
ENDBRANCH   3  12
BRANCH   4  26
ATOM     26  C   UNL     1      29.477  26.900  88.856  1.00  0.00     0.021 A 
ATOM     27  C   UNL     1      30.097  26.634  90.078  1.00  0.00     0.016 A 
ATOM     28  C   UNL     1      29.315  25.879  87.921  1.00  0.00     0.016 A 
ATOM     29  C   UNL     1      30.555  25.347  90.362  1.00  0.00     0.047 A 
ATOM     30  C   UNL     1      29.771  24.592  88.205  1.00  0.00     0.047 A 
ATOM     31  C   UNL     1      30.391  24.326  89.426  1.00  0.00     0.115 A 
BRANCH  31  32
ATOM     32  O   UNL     1      30.837  23.071  89.704  1.00  0.00    -0.508 OA
ATOM     33  H   UNL     1      31.490  22.812  89.031  1.00  0.00     0.293 HD
ENDBRANCH  31  32
ENDBRANCH   4  26
BRANCH   8  34
ATOM     34  O   UNL     1      27.821  33.098  87.607  1.00  0.00    -0.507 OA
ATOM     35  H   UNL     1      27.199  33.808  87.373  1.00  0.00     0.293 HD
ENDBRANCH   8  34
BRANCH  11  36
ATOM     36  O   UNL     1      23.798  30.697  86.834  1.00  0.00    -0.508 OA
ATOM     37  H   UNL     1      23.473  29.781  86.823  1.00  0.00     0.293 HD
ENDBRANCH  11  36
TORSDOF 9
ENDMDL
MODEL 5
REMARK VINA RESULT:    -7.630      2.235      7.345
REMARK INTER + INTRA:         -11.484
REMARK INTER:                 -11.370
REMARK INTRA:                  -0.114
REMARK UNBOUND:                -1.178
REMARK SMILES C[C@@H]1O[C@@H](Oc2c(-c3ccc(O)cc3)oc3cc(O)cc(O)c3c2=O)[C@H](O)[C@H](O)[C@H]1O
REMARK SMILES IDX 15 1 25 2 6 3 7 4 24 5 23 6 16 7 21 8 17 9 20 10 18 11 5 12
REMARK SMILES IDX 4 13 3 14 2 15 30 16 26 17 28 18 1 19 31 20 27 22 29 24 8 26
REMARK SMILES IDX 9 27 14 28 10 29 13 30 11 31 12 32 22 34 19 36
REMARK H PARENT 31 21 27 23 29 25 12 33 22 35 19 37
ROOT
ATOM      1  O   UNL     1      32.051  24.919  88.272  1.00  0.00    -0.452 OA
ATOM      2  O   UNL     1      31.143  27.827  90.979  1.00  0.00    -0.285 OA
ATOM      3  C   UNL     1      30.397  26.382  89.258  1.00  0.00     0.214 A 
ATOM      4  C   UNL     1      30.767  25.428  88.383  1.00  0.00     0.180 A 
ATOM      5  C   UNL     1      31.420  26.957  90.164  1.00  0.00     0.239 A 
ATOM      6  C   UNL     1      32.784  26.422  90.032  1.00  0.00     0.111 A 
ATOM      7  C   UNL     1      33.028  25.426  89.089  1.00  0.00     0.146 A 
ATOM      8  C   UNL     1      33.820  26.900  90.838  1.00  0.00     0.134 A 
ATOM      9  C   UNL     1      34.313  24.902  88.946  1.00  0.00     0.094 A 
ATOM     10  C   UNL     1      35.104  26.374  90.693  1.00  0.00     0.093 A 
ATOM     11  C   UNL     1      35.350  25.376  89.749  1.00  0.00     0.123 A 
ENDROOT
BRANCH   3  12
ATOM     12  O   UNL     1      29.102  26.843  89.365  1.00  0.00    -0.454 OA
BRANCH  12  13
ATOM     13  C   UNL     1      28.627  27.371  88.132  1.00  0.00     0.339 C 
ATOM     14  O   UNL     1      28.996  28.741  87.946  1.00  0.00    -0.335 OA
ATOM     15  C   UNL     1      28.420  29.639  88.900  1.00  0.00     0.151 C 
ATOM     16  C   UNL     1      26.886  29.585  88.852  1.00  0.00     0.174 C 
ATOM     17  C   UNL     1      27.111  27.206  88.051  1.00  0.00     0.214 C 
ATOM     18  C   UNL     1      26.406  28.145  89.031  1.00  0.00     0.180 C 
ATOM     19  C   UNL     1      28.953  31.033  88.579  1.00  0.00     0.042 C 
BRANCH  16  20
ATOM     20  O   UNL     1      26.331  30.372  89.903  1.00  0.00    -0.388 OA
ATOM     21  H   UNL     1      26.793  31.227  89.915  1.00  0.00     0.211 HD
ENDBRANCH  16  20
BRANCH  17  22
ATOM     22  O   UNL     1      26.710  27.509  86.714  1.00  0.00    -0.384 OA
ATOM     23  H   UNL     1      26.242  28.361  86.734  1.00  0.00     0.211 HD
ENDBRANCH  17  22
BRANCH  18  24
ATOM     24  O   UNL     1      24.996  28.092  88.826  1.00  0.00    -0.387 OA
ATOM     25  H   UNL     1      24.673  29.006  88.748  1.00  0.00     0.211 HD
ENDBRANCH  18  24
ENDBRANCH  12  13
ENDBRANCH   3  12
BRANCH   4  26
ATOM     26  C   UNL     1      29.815  24.796  87.452  1.00  0.00     0.021 A 
ATOM     27  C   UNL     1      30.004  24.916  86.075  1.00  0.00     0.016 A 
ATOM     28  C   UNL     1      28.727  24.078  87.947  1.00  0.00     0.016 A 
ATOM     29  C   UNL     1      29.102  24.317  85.193  1.00  0.00     0.047 A 
ATOM     30  C   UNL     1      27.826  23.479  87.066  1.00  0.00     0.047 A 
ATOM     31  C   UNL     1      28.014  23.599  85.689  1.00  0.00     0.115 A 
BRANCH  31  32
ATOM     32  O   UNL     1      27.136  23.014  84.829  1.00  0.00    -0.508 OA
ATOM     33  H   UNL     1      26.499  22.486  85.341  1.00  0.00     0.293 HD
ENDBRANCH  31  32
ENDBRANCH   4  26
BRANCH   8  34
ATOM     34  O   UNL     1      33.633  27.872  91.775  1.00  0.00    -0.507 OA
ATOM     35  H   UNL     1      33.552  27.464  92.654  1.00  0.00     0.293 HD
ENDBRANCH   8  34
BRANCH  11  36
ATOM     36  O   UNL     1      36.605  24.866  89.610  1.00  0.00    -0.508 OA
ATOM     37  H   UNL     1      37.244  25.599  89.600  1.00  0.00     0.293 HD
ENDBRANCH  11  36
TORSDOF 9
ENDMDL
MODEL 6
REMARK VINA RESULT:    -7.490      2.271      3.479
REMARK INTER + INTRA:         -11.295
REMARK INTER:                 -10.459
REMARK INTRA:                  -0.836
REMARK UNBOUND:                -1.178
REMARK SMILES C[C@@H]1O[C@@H](Oc2c(-c3ccc(O)cc3)oc3cc(O)cc(O)c3c2=O)[C@H](O)[C@H](O)[C@H]1O
REMARK SMILES IDX 15 1 25 2 6 3 7 4 24 5 23 6 16 7 21 8 17 9 20 10 18 11 5 12
REMARK SMILES IDX 4 13 3 14 2 15 30 16 26 17 28 18 1 19 31 20 27 22 29 24 8 26
REMARK SMILES IDX 9 27 14 28 10 29 13 30 11 31 12 32 22 34 19 36
REMARK H PARENT 31 21 27 23 29 25 12 33 22 35 19 37
ROOT
ATOM      1  O   UNL     1      30.177  30.235  88.305  1.00  0.00    -0.452 OA
ATOM      2  O   UNL     1      27.729  27.233  89.574  1.00  0.00    -0.285 OA
ATOM      3  C   UNL     1      29.932  27.966  89.105  1.00  0.00     0.214 A 
ATOM      4  C   UNL     1      30.681  28.996  88.672  1.00  0.00     0.180 A 
ATOM      5  C   UNL     1      28.461  28.135  89.188  1.00  0.00     0.239 A 
ATOM      6  C   UNL     1      27.931  29.446  88.785  1.00  0.00     0.111 A 
ATOM      7  C   UNL     1      28.821  30.432  88.363  1.00  0.00     0.146 A 
ATOM      8  C   UNL     1      26.559  29.705  88.825  1.00  0.00     0.134 A 
ATOM      9  C   UNL     1      28.343  31.684  87.978  1.00  0.00     0.094 A 
ATOM     10  C   UNL     1      26.083  30.959  88.438  1.00  0.00     0.093 A 
ATOM     11  C   UNL     1      26.974  31.946  88.015  1.00  0.00     0.123 A 
ENDROOT
BRANCH   3  12
ATOM     12  O   UNL     1      30.468  26.757  89.494  1.00  0.00    -0.454 OA
BRANCH  12  13
ATOM     13  C   UNL     1      30.296  25.758  88.495  1.00  0.00     0.339 C 
ATOM     14  O   UNL     1      29.745  24.547  89.023  1.00  0.00    -0.335 OA
ATOM     15  C   UNL     1      30.587  23.883  89.970  1.00  0.00     0.151 C 
ATOM     16  C   UNL     1      31.939  23.515  89.343  1.00  0.00     0.174 C 
ATOM     17  C   UNL     1      31.630  25.486  87.803  1.00  0.00     0.214 C 
ATOM     18  C   UNL     1      32.594  24.758  88.742  1.00  0.00     0.180 C 
ATOM     19  C   UNL     1      29.827  22.651  90.455  1.00  0.00     0.042 C 
BRANCH  16  20
ATOM     20  O   UNL     1      32.817  22.988  90.336  1.00  0.00    -0.388 OA
ATOM     21  H   UNL     1      33.228  22.184  89.978  1.00  0.00     0.211 HD
ENDBRANCH  16  20
BRANCH  17  22
ATOM     22  O   UNL     1      31.368  24.678  86.654  1.00  0.00    -0.384 OA
ATOM     23  H   UNL     1      30.974  25.252  85.976  1.00  0.00     0.211 HD
ENDBRANCH  17  22
BRANCH  18  24
ATOM     24  O   UNL     1      33.767  24.372  88.030  1.00  0.00    -0.387 OA
ATOM     25  H   UNL     1      34.226  23.697  88.558  1.00  0.00     0.211 HD
ENDBRANCH  18  24
ENDBRANCH  12  13
ENDBRANCH   3  12
BRANCH   4  26
ATOM     26  C   UNL     1      32.148  28.919  88.566  1.00  0.00     0.021 A 
ATOM     27  C   UNL     1      32.766  29.060  87.322  1.00  0.00     0.016 A 
ATOM     28  C   UNL     1      32.920  28.705  89.707  1.00  0.00     0.016 A 
ATOM     29  C   UNL     1      34.157  28.986  87.222  1.00  0.00     0.047 A 
ATOM     30  C   UNL     1      34.310  28.632  89.607  1.00  0.00     0.047 A 
ATOM     31  C   UNL     1      34.928  28.773  88.365  1.00  0.00     0.115 A 
BRANCH  31  32
ATOM     32  O   UNL     1      36.283  28.702  88.267  1.00  0.00    -0.508 OA
ATOM     33  H   UNL     1      36.523  27.881  87.804  1.00  0.00     0.293 HD
ENDBRANCH  31  32
ENDBRANCH   4  26
BRANCH   8  34
ATOM     34  O   UNL     1      25.648  28.777  89.229  1.00  0.00    -0.507 OA
ATOM     35  H   UNL     1      25.834  27.927  88.794  1.00  0.00     0.293 HD
ENDBRANCH   8  34
BRANCH  11  36
ATOM     36  O   UNL     1      26.505  33.168  87.639  1.00  0.00    -0.508 OA
ATOM     37  H   UNL     1      26.140  33.103  86.740  1.00  0.00     0.293 HD
ENDBRANCH  11  36
TORSDOF 9
ENDMDL
MODEL 7
REMARK VINA RESULT:    -7.466      1.728      6.502
REMARK INTER + INTRA:         -11.263
REMARK INTER:                 -10.502
REMARK INTRA:                  -0.761
REMARK UNBOUND:                -1.178
REMARK SMILES C[C@@H]1O[C@@H](Oc2c(-c3ccc(O)cc3)oc3cc(O)cc(O)c3c2=O)[C@H](O)[C@H](O)[C@H]1O
REMARK SMILES IDX 15 1 25 2 6 3 7 4 24 5 23 6 16 7 21 8 17 9 20 10 18 11 5 12
REMARK SMILES IDX 4 13 3 14 2 15 30 16 26 17 28 18 1 19 31 20 27 22 29 24 8 26
REMARK SMILES IDX 9 27 14 28 10 29 13 30 11 31 12 32 22 34 19 36
REMARK H PARENT 31 21 27 23 29 25 12 33 22 35 19 37
ROOT
ATOM      1  O   UNL     1      30.367  25.891  86.672  1.00  0.00    -0.452 OA
ATOM      2  O   UNL     1      26.430  26.425  87.584  1.00  0.00    -0.285 OA
ATOM      3  C   UNL     1      28.660  27.202  87.773  1.00  0.00     0.214 A 
ATOM      4  C   UNL     1      29.941  26.963  87.441  1.00  0.00     0.180 A 
ATOM      5  C   UNL     1      27.612  26.260  87.312  1.00  0.00     0.239 A 
ATOM      6  C   UNL     1      28.071  25.117  86.507  1.00  0.00     0.111 A 
ATOM      7  C   UNL     1      29.431  24.993  86.227  1.00  0.00     0.146 A 
ATOM      8  C   UNL     1      27.163  24.171  86.027  1.00  0.00     0.134 A 
ATOM      9  C   UNL     1      29.891  23.920  85.465  1.00  0.00     0.094 A 
ATOM     10  C   UNL     1      27.626  23.098  85.264  1.00  0.00     0.093 A 
ATOM     11  C   UNL     1      28.987  22.972  84.984  1.00  0.00     0.123 A 
ENDROOT
BRANCH   3  12
ATOM     12  O   UNL     1      28.266  28.297  88.513  1.00  0.00    -0.454 OA
BRANCH  12  13
ATOM     13  C   UNL     1      27.451  29.182  87.753  1.00  0.00     0.339 C 
ATOM     14  O   UNL     1      28.111  30.418  87.461  1.00  0.00    -0.335 OA
ATOM     15  C   UNL     1      28.417  31.206  88.616  1.00  0.00     0.151 C 
ATOM     16  C   UNL     1      27.142  31.561  89.395  1.00  0.00     0.174 C 
ATOM     17  C   UNL     1      26.137  29.434  88.490  1.00  0.00     0.214 C 
ATOM     18  C   UNL     1      26.366  30.290  89.737  1.00  0.00     0.180 C 
ATOM     19  C   UNL     1      29.151  32.451  88.123  1.00  0.00     0.042 C 
BRANCH  16  20
ATOM     20  O   UNL     1      27.476  32.220  90.614  1.00  0.00    -0.388 OA
ATOM     21  H   UNL     1      27.822  31.554  91.232  1.00  0.00     0.211 HD
ENDBRANCH  16  20
BRANCH  17  22
ATOM     22  O   UNL     1      25.256  30.111  87.592  1.00  0.00    -0.384 OA
ATOM     23  H   UNL     1      24.409  30.237  88.051  1.00  0.00     0.211 HD
ENDBRANCH  17  22
BRANCH  18  24
ATOM     24  O   UNL     1      25.114  30.647  90.319  1.00  0.00    -0.387 OA
ATOM     25  H   UNL     1      25.010  31.609  90.230  1.00  0.00     0.211 HD
ENDBRANCH  18  24
ENDBRANCH  12  13
ENDBRANCH   3  12
BRANCH   4  26
ATOM     26  C   UNL     1      31.044  27.850  87.850  1.00  0.00     0.021 A 
ATOM     27  C   UNL     1      31.335  28.992  87.101  1.00  0.00     0.016 A 
ATOM     28  C   UNL     1      31.797  27.551  88.985  1.00  0.00     0.016 A 
ATOM     29  C   UNL     1      32.380  29.833  87.489  1.00  0.00     0.047 A 
ATOM     30  C   UNL     1      32.840  28.392  89.373  1.00  0.00     0.047 A 
ATOM     31  C   UNL     1      33.132  29.532  88.625  1.00  0.00     0.115 A 
BRANCH  31  32
ATOM     32  O   UNL     1      34.149  30.352  89.004  1.00  0.00    -0.508 OA
ATOM     33  H   UNL     1      33.951  31.257  88.707  1.00  0.00     0.293 HD
ENDBRANCH  31  32
ENDBRANCH   4  26
BRANCH   8  34
ATOM     34  O   UNL     1      25.825  24.247  86.271  1.00  0.00    -0.507 OA
ATOM     35  H   UNL     1      25.626  25.082  86.728  1.00  0.00     0.293 HD
ENDBRANCH   8  34
BRANCH  11  36
ATOM     36  O   UNL     1      29.434  21.923  84.239  1.00  0.00    -0.508 OA
ATOM     37  H   UNL     1      28.697  21.576  83.708  1.00  0.00     0.293 HD
ENDBRANCH  11  36
TORSDOF 9
ENDMDL
MODEL 8
REMARK VINA RESULT:    -7.364      2.874      7.760
REMARK INTER + INTRA:         -11.125
REMARK INTER:                 -10.038
REMARK INTRA:                  -1.088
REMARK UNBOUND:                -1.178
REMARK SMILES C[C@@H]1O[C@@H](Oc2c(-c3ccc(O)cc3)oc3cc(O)cc(O)c3c2=O)[C@H](O)[C@H](O)[C@H]1O
REMARK SMILES IDX 15 1 25 2 6 3 7 4 24 5 23 6 16 7 21 8 17 9 20 10 18 11 5 12
REMARK SMILES IDX 4 13 3 14 2 15 30 16 26 17 28 18 1 19 31 20 27 22 29 24 8 26
REMARK SMILES IDX 9 27 14 28 10 29 13 30 11 31 12 32 22 34 19 36
REMARK H PARENT 31 21 27 23 29 25 12 33 22 35 19 37
ROOT
ATOM      1  O   UNL     1      33.570  24.805  89.094  1.00  0.00    -0.452 OA
ATOM      2  O   UNL     1      29.755  23.989  90.273  1.00  0.00    -0.285 OA
ATOM      3  C   UNL     1      31.328  25.598  89.535  1.00  0.00     0.214 A 
ATOM      4  C   UNL     1      32.605  25.798  89.162  1.00  0.00     0.180 A 
ATOM      5  C   UNL     1      30.902  24.232  89.923  1.00  0.00     0.239 A 
ATOM      6  C   UNL     1      31.933  23.184  89.862  1.00  0.00     0.111 A 
ATOM      7  C   UNL     1      33.218  23.527  89.448  1.00  0.00     0.146 A 
ATOM      8  C   UNL     1      31.633  21.865  90.210  1.00  0.00     0.134 A 
ATOM      9  C   UNL     1      34.213  22.552  89.380  1.00  0.00     0.094 A 
ATOM     10  C   UNL     1      32.630  20.891  90.141  1.00  0.00     0.093 A 
ATOM     11  C   UNL     1      33.918  21.234  89.727  1.00  0.00     0.123 A 
ENDROOT
BRANCH   3  12
ATOM     12  O   UNL     1      30.385  26.603  89.561  1.00  0.00    -0.454 OA
BRANCH  12  13
ATOM     13  C   UNL     1      29.829  26.837  88.271  1.00  0.00     0.339 C 
ATOM     14  O   UNL     1      30.193  28.117  87.745  1.00  0.00    -0.335 OA
ATOM     15  C   UNL     1      29.688  29.226  88.496  1.00  0.00     0.151 C 
ATOM     16  C   UNL     1      28.154  29.195  88.561  1.00  0.00     0.174 C 
ATOM     17  C   UNL     1      28.311  26.690  88.330  1.00  0.00     0.214 C 
ATOM     18  C   UNL     1      27.679  27.848  89.105  1.00  0.00     0.180 C 
ATOM     19  C   UNL     1      30.205  30.494  87.823  1.00  0.00     0.042 C 
BRANCH  16  20
ATOM     20  O   UNL     1      27.676  30.218  89.431  1.00  0.00    -0.388 OA
ATOM     21  H   UNL     1      28.126  31.047  89.197  1.00  0.00     0.211 HD
ENDBRANCH  16  20
BRANCH  17  22
ATOM     22  O   UNL     1      27.822  26.680  86.988  1.00  0.00    -0.384 OA
ATOM     23  H   UNL     1      28.133  27.493  86.556  1.00  0.00     0.211 HD
ENDBRANCH  17  22
BRANCH  18  24
ATOM     24  O   UNL     1      26.258  27.778  89.011  1.00  0.00    -0.387 OA
ATOM     25  H   UNL     1      25.899  28.626  89.322  1.00  0.00     0.211 HD
ENDBRANCH  18  24
ENDBRANCH  12  13
ENDBRANCH   3  12
BRANCH   4  26
ATOM     26  C   UNL     1      33.112  27.120  88.753  1.00  0.00     0.021 A 
ATOM     27  C   UNL     1      33.394  28.088  89.718  1.00  0.00     0.016 A 
ATOM     28  C   UNL     1      33.311  27.404  87.403  1.00  0.00     0.016 A 
ATOM     29  C   UNL     1      33.874  29.340  89.331  1.00  0.00     0.047 A 
ATOM     30  C   UNL     1      33.792  28.656  87.015  1.00  0.00     0.047 A 
ATOM     31  C   UNL     1      34.073  29.624  87.979  1.00  0.00     0.115 A 
BRANCH  31  32
ATOM     32  O   UNL     1      34.542  30.844  87.602  1.00  0.00    -0.508 OA
ATOM     33  H   UNL     1      35.413  30.730  87.183  1.00  0.00     0.293 HD
ENDBRANCH  31  32
ENDBRANCH   4  26
BRANCH   8  34
ATOM     34  O   UNL     1      30.393  21.478  90.620  1.00  0.00    -0.507 OA
ATOM     35  H   UNL     1      30.321  20.509  90.565  1.00  0.00     0.293 HD
ENDBRANCH   8  34
BRANCH  11  36
ATOM     36  O   UNL     1      34.887  20.280  89.661  1.00  0.00    -0.508 OA
ATOM     37  H   UNL     1      35.422  20.427  88.862  1.00  0.00     0.293 HD
ENDBRANCH  11  36
TORSDOF 9
ENDMDL
MODEL 9
REMARK VINA RESULT:    -7.150      2.103      6.573
REMARK INTER + INTRA:         -10.837
REMARK INTER:                 -10.093
REMARK INTRA:                  -0.744
REMARK UNBOUND:                -1.178
REMARK SMILES C[C@@H]1O[C@@H](Oc2c(-c3ccc(O)cc3)oc3cc(O)cc(O)c3c2=O)[C@H](O)[C@H](O)[C@H]1O
REMARK SMILES IDX 15 1 25 2 6 3 7 4 24 5 23 6 16 7 21 8 17 9 20 10 18 11 5 12
REMARK SMILES IDX 4 13 3 14 2 15 30 16 26 17 28 18 1 19 31 20 27 22 29 24 8 26
REMARK SMILES IDX 9 27 14 28 10 29 13 30 11 31 12 32 22 34 19 36
REMARK H PARENT 31 21 27 23 29 25 12 33 22 35 19 37
ROOT
ATOM      1  O   UNL     1      31.981  28.335  90.023  1.00  0.00    -0.452 OA
ATOM      2  O   UNL     1      33.228  25.131  87.835  1.00  0.00    -0.285 OA
ATOM      3  C   UNL     1      31.523  26.711  88.292  1.00  0.00     0.214 A 
ATOM      4  C   UNL     1      31.172  27.763  89.054  1.00  0.00     0.180 A 
ATOM      5  C   UNL     1      32.854  26.091  88.497  1.00  0.00     0.239 A 
ATOM      6  C   UNL     1      33.702  26.694  89.536  1.00  0.00     0.111 A 
ATOM      7  C   UNL     1      33.218  27.790  90.248  1.00  0.00     0.146 A 
ATOM      8  C   UNL     1      34.973  26.181  89.808  1.00  0.00     0.134 A 
ATOM      9  C   UNL     1      34.004  28.380  91.237  1.00  0.00     0.094 A 
ATOM     10  C   UNL     1      35.757  26.774  90.799  1.00  0.00     0.093 A 
ATOM     11  C   UNL     1      35.273  27.872  91.512  1.00  0.00     0.123 A 
ENDROOT
BRANCH   3  12
ATOM     12  O   UNL     1      30.707  26.186  87.312  1.00  0.00    -0.454 OA
BRANCH  12  13
ATOM     13  C   UNL     1      30.262  24.875  87.643  1.00  0.00     0.339 C 
ATOM     14  O   UNL     1      30.213  24.011  86.502  1.00  0.00    -0.335 OA
ATOM     15  C   UNL     1      29.266  24.408  85.506  1.00  0.00     0.151 C 
ATOM     16  C   UNL     1      27.844  24.456  86.085  1.00  0.00     0.174 C 
ATOM     17  C   UNL     1      28.897  24.949  88.321  1.00  0.00     0.214 C 
ATOM     18  C   UNL     1      27.811  25.353  87.322  1.00  0.00     0.180 C 
ATOM     19  C   UNL     1      29.382  23.410  84.357  1.00  0.00     0.042 C 
BRANCH  16  20
ATOM     20  O   UNL     1      26.937  24.991  85.124  1.00  0.00    -0.388 OA
ATOM     21  H   UNL     1      26.931  25.958  85.221  1.00  0.00     0.211 HD
ENDBRANCH  16  20
BRANCH  17  22
ATOM     22  O   UNL     1      28.606  23.658  88.859  1.00  0.00    -0.384 OA
ATOM     23  H   UNL     1      27.954  23.237  88.274  1.00  0.00     0.211 HD
ENDBRANCH  17  22
BRANCH  18  24
ATOM     24  O   UNL     1      26.527  25.260  87.935  1.00  0.00    -0.387 OA
ATOM     25  H   UNL     1      26.098  26.129  87.856  1.00  0.00     0.211 HD
ENDBRANCH  18  24
ENDBRANCH  12  13
ENDBRANCH   3  12
BRANCH   4  26
ATOM     26  C   UNL     1      29.874  28.444  88.912  1.00  0.00     0.021 A 
ATOM     27  C   UNL     1      28.760  27.976  89.611  1.00  0.00     0.016 A 
ATOM     28  C   UNL     1      29.757  29.558  88.081  1.00  0.00     0.016 A 
ATOM     29  C   UNL     1      27.530  28.622  89.477  1.00  0.00     0.047 A 
ATOM     30  C   UNL     1      28.527  30.204  87.947  1.00  0.00     0.047 A 
ATOM     31  C   UNL     1      27.414  29.736  88.645  1.00  0.00     0.115 A 
BRANCH  31  32
ATOM     32  O   UNL     1      26.215  30.366  88.516  1.00  0.00    -0.508 OA
ATOM     33  H   UNL     1      26.159  31.075  89.179  1.00  0.00     0.293 HD
ENDBRANCH  31  32
ENDBRANCH   4  26
BRANCH   8  34
ATOM     34  O   UNL     1      35.492  25.113  89.141  1.00  0.00    -0.507 OA
ATOM     35  H   UNL     1      34.820  24.748  88.539  1.00  0.00     0.293 HD
ENDBRANCH   8  34
BRANCH  11  36
ATOM     36  O   UNL     1      36.042  28.447  92.478  1.00  0.00    -0.508 OA
ATOM     37  H   UNL     1      36.868  28.766  92.076  1.00  0.00     0.293 HD
ENDBRANCH  11  36
TORSDOF 9
ENDMDL
